30
	Energy:      60.5015135
C          0.05605       -1.49696        0.07020
C         -0.53735       -0.09288       -0.19753
H          0.82064       -1.31391       -0.56937
H          0.20410       -1.27015        1.00196
C          0.37018        1.13619        0.15636
H         -0.79055       -0.05484       -1.27836
H         -1.48098       -0.03472        0.38540
C         -0.36192        2.50541       -0.11816
H          1.29940        1.06966       -0.44876
H          0.64521        1.07277        1.23161
C          0.42155        3.85851        0.14692
H         -0.68345        2.50650       -1.18179
H         -1.27516        2.50560        0.51486
C         -0.50604        5.12103       -0.05785
H          1.29545        3.91150       -0.53575
H          0.78980        3.86217        1.19511
O          0.06347        6.40921        0.12682
H         -1.33412        4.98903        0.67073
H         -0.94197        5.09037       -1.07864
C         -0.75354        7.52221        0.33338
O2        -1.93085        7.34081        0.58100
C         -0.26332        9.00187        0.34791
C         -1.54298        9.10298       -0.24616
H         -1.60858        9.25657       -1.23590
H         -2.10596        9.79735       -0.05719
H         -2.18272        8.63036        0.27745
C          0.82887        8.75251       -0.08208
H          1.40125        8.42794       -0.63770
H          1.34673        8.31535        0.63944
H          1.44261        9.09308        0.12366
