30
	Energy:      60.5015135
opls_136          0.05605       -1.49696        0.07020
opls_136         -0.53735       -0.09288       -0.19753
opls_140          0.82064       -1.31391       -0.56937
opls_140          0.20410       -1.27015        1.00196
opls_136          0.37018        1.13619        0.15636
opls_140         -0.79055       -0.05484       -1.27836
opls_140         -1.48098       -0.03472        0.38540
opls_136         -0.36192        2.50541       -0.11816
opls_140          1.29940        1.06966       -0.44876
opls_140          0.64521        1.07277        1.23161
opls_136          0.42155        3.85851        0.14692
opls_140         -0.68345        2.50650       -1.18179
opls_140         -1.27516        2.50560        0.51486
opls_468         -0.50604        5.12103       -0.05785
opls_140          1.29545        3.91150       -0.53575
opls_140          0.78980        3.86217        1.19511
opls_467          0.06347        6.40921        0.12682
opls_140         -1.33412        4.98903        0.67073
opls_140         -0.94197        5.09037       -1.07864
opls_465         -0.75354        7.52221        0.33338
opls_466        -1.93085        7.34081        0.58100
opls_139         -0.26332        9.00187        0.34791
opls_135         -1.54298        9.10298       -0.24616
opls_140         -1.60858        9.25657       -1.23590
opls_140         -2.10596        9.79735       -0.05719
opls_140         -2.18272        8.63036        0.27745
opls_135          0.82887        8.75251       -0.08208
opls_140          1.40125        8.42794       -0.63770
opls_140          1.34673        8.31535        0.63944
opls_140          1.44261        9.09308        0.12366
