5
	Energy:      -0.1092295
SI         0.56971        0.89087        0.53592
opls_154         -0.60510        1.57460       -0.29226
opls_155         -1.37337        2.11593       -0.75793
opls_154          1.94517        1.06591       -0.24632
opls_155          2.83680        1.25455       -0.61820
