5
	Energy:      -0.1092295
Si         0.56971        0.89087        0.53592
O         -0.60510        1.57460       -0.29226
H         -1.37337        2.11593       -0.75793
O          1.94517        1.06591       -0.24632
H          2.83680        1.25455       -0.61820
