Hexane

360 atoms
342 bonds
648 angles
810 dihedrals

3 atom types
2 bond types
3 angle types
3 dihedral types

-14.0388 14.0462 xlo xhi
-11.201 11.184 ylo yhi
-6.03915 6.05685 zlo zhi

Masses

1 12.011
2 12.011
3 1.0079

Atoms

1	0	2	-0.18	-11.5008	-5.399	-3.04115
2	0	1	-0.12	-10.0118	-5.378	-2.64615
3	0	1	-0.12	-9.43985	-6.806	-2.72115
4	0	1	-0.12	-7.95185	-6.785	-2.32715
5	0	3	0.06	-12.0388	-6.034	-2.36915
6	0	3	0.06	-11.8979	-4.406	-2.98915
7	0	3	0.06	-11.5998	-5.77	-4.03915
8	0	3	0.06	-9.47385	-4.743	-3.31915
9	0	3	0.06	-9.91185	-5.006	-1.64815
10	0	3	0.06	-9.97785	-7.441	-2.04915
11	0	3	0.06	-9.53885	-7.178	-3.71915
12	0	3	0.06	-7.84985	-6.406	-1.31015
13	0	3	0.06	-7.40285	-6.138	-3.01215
14	0	1	-0.12	-7.37985	-8.212	-2.40215
15	0	3	0.06	-7.48085	-8.591	-3.41815
16	0	3	0.06	-7.92785	-8.859	-1.71715
17	0	2	-0.18	-5.89285	-8.191	-2.00815
18	0	3	0.06	-5.48785	-9.201	-2.06015
19	0	3	0.06	-5.34385	-7.544	-2.69215
20	0	3	0.06	-5.79085	-7.812	-0.991148
21	0	2	-0.18	-11.5008	-5.399	2.00685
22	0	1	-0.12	-10.0118	-5.378	2.40185
23	0	1	-0.12	-9.43985	-6.806	2.32685
24	0	1	-0.12	-7.95185	-6.785	2.72085
25	0	3	0.06	-12.0388	-6.034	2.67885
26	0	3	0.06	-11.8979	-4.406	2.05885
27	0	3	0.06	-11.5998	-5.77	1.00885
28	0	3	0.06	-9.47385	-4.743	1.72885
29	0	3	0.06	-9.91185	-5.006	3.39985
30	0	3	0.06	-9.97785	-7.441	2.99885
31	0	3	0.06	-9.53885	-7.178	1.32885
32	0	3	0.06	-7.84985	-6.406	3.73785
33	0	3	0.06	-7.40285	-6.138	2.03585
34	0	1	-0.12	-7.37985	-8.212	2.64585
35	0	3	0.06	-7.48085	-8.591	1.62985
36	0	3	0.06	-7.92785	-8.859	3.33085
37	0	2	-0.18	-5.89285	-8.191	3.03985
38	0	3	0.06	-5.48785	-9.201	2.98785
39	0	3	0.06	-5.34385	-7.544	2.35585
40	0	3	0.06	-5.79085	-7.812	4.05685
41	0	2	-0.18	-11.5008	1.396	-3.04115
42	0	1	-0.12	-10.0118	1.417	-2.64615
43	0	1	-0.12	-9.43985	-0.011	-2.72115
44	0	1	-0.12	-7.95185	0.01	-2.32715
45	0	3	0.06	-12.0388	0.761	-2.36915
46	0	3	0.06	-11.8979	2.389	-2.98915
47	0	3	0.06	-11.5998	1.025	-4.03915
48	0	3	0.06	-9.47385	2.052	-3.31915
49	0	3	0.06	-9.91185	1.789	-1.64815
50	0	3	0.06	-9.97785	-0.646	-2.04915
51	0	3	0.06	-9.53885	-0.383	-3.71915
52	0	3	0.06	-7.84985	0.389	-1.31015
53	0	3	0.06	-7.40285	0.657	-3.01215
54	0	1	-0.12	-7.37985	-1.417	-2.40215
55	0	3	0.06	-7.48085	-1.796	-3.41815
56	0	3	0.06	-7.92785	-2.064	-1.71715
57	0	2	-0.18	-5.89285	-1.396	-2.00815
58	0	3	0.06	-5.48785	-2.406	-2.06015
59	0	3	0.06	-5.34385	-0.749	-2.69215
60	0	3	0.06	-5.79085	-1.017	-0.991148
61	0	2	-0.18	-11.5008	1.396	2.00685
62	0	1	-0.12	-10.0118	1.417	2.40185
63	0	1	-0.12	-9.43985	-0.011	2.32685
64	0	1	-0.12	-7.95185	0.01	2.72085
65	0	3	0.06	-12.0388	0.761	2.67885
66	0	3	0.06	-11.8979	2.389	2.05885
67	0	3	0.06	-11.5998	1.025	1.00885
68	0	3	0.06	-9.47385	2.052	1.72885
69	0	3	0.06	-9.91185	1.789	3.39985
70	0	3	0.06	-9.97785	-0.646	2.99885
71	0	3	0.06	-9.53885	-0.383	1.32885
72	0	3	0.06	-7.84985	0.389	3.73785
73	0	3	0.06	-7.40285	0.657	2.03585
74	0	1	-0.12	-7.37985	-1.417	2.64585
75	0	3	0.06	-7.48085	-1.796	1.62985
76	0	3	0.06	-7.92785	-2.064	3.33085
77	0	2	-0.18	-5.89285	-1.396	3.03985
78	0	3	0.06	-5.48785	-2.406	2.98785
79	0	3	0.06	-5.34385	-0.749	2.35585
80	0	3	0.06	-5.79085	-1.017	4.05685
81	0	2	-0.18	-11.5008	8.191	-3.04115
82	0	1	-0.12	-10.0118	8.212	-2.64615
83	0	1	-0.12	-9.43985	6.784	-2.72115
84	0	1	-0.12	-7.95185	6.805	-2.32715
85	0	3	0.06	-12.0388	7.556	-2.36915
86	0	3	0.06	-11.8979	9.184	-2.98915
87	0	3	0.06	-11.5998	7.82	-4.03915
88	0	3	0.06	-9.47385	8.847	-3.31915
89	0	3	0.06	-9.91185	8.584	-1.64815
90	0	3	0.06	-9.97785	6.149	-2.04915
91	0	3	0.06	-9.53885	6.412	-3.71915
92	0	3	0.06	-7.84985	7.184	-1.31015
93	0	3	0.06	-7.40285	7.452	-3.01215
94	0	1	-0.12	-7.37985	5.378	-2.40215
95	0	3	0.06	-7.48085	4.999	-3.41815
96	0	3	0.06	-7.92785	4.731	-1.71715
97	0	2	-0.18	-5.89285	5.399	-2.00815
98	0	3	0.06	-5.48785	4.389	-2.06015
99	0	3	0.06	-5.34385	6.046	-2.69215
100	0	3	0.06	-5.79085	5.778	-0.991148
101	0	2	-0.18	-11.5008	8.191	2.00685
102	0	1	-0.12	-10.0118	8.212	2.40185
103	0	1	-0.12	-9.43985	6.784	2.32685
104	0	1	-0.12	-7.95185	6.805	2.72085
105	0	3	0.06	-12.0388	7.556	2.67885
106	0	3	0.06	-11.8979	9.184	2.05885
107	0	3	0.06	-11.5998	7.82	1.00885
108	0	3	0.06	-9.47385	8.847	1.72885
109	0	3	0.06	-9.91185	8.584	3.39985
110	0	3	0.06	-9.97785	6.149	2.99885
111	0	3	0.06	-9.53885	6.412	1.32885
112	0	3	0.06	-7.84985	7.184	3.73785
113	0	3	0.06	-7.40285	7.452	2.03585
114	0	1	-0.12	-7.37985	5.378	2.64585
115	0	3	0.06	-7.48085	4.999	1.62985
116	0	3	0.06	-7.92785	4.731	3.33085
117	0	2	-0.18	-5.89285	5.399	3.03985
118	0	3	0.06	-5.48785	4.389	2.98785
119	0	3	0.06	-5.34385	6.046	2.35585
120	0	3	0.06	-5.79085	5.778	4.05685
121	0	2	-0.18	-2.80585	-5.399	-3.04115
122	0	1	-0.12	-1.31685	-5.378	-2.64615
123	0	1	-0.12	-0.74485	-6.806	-2.72115
124	0	1	-0.12	0.74315	-6.785	-2.32715
125	0	3	0.06	-3.34385	-6.034	-2.36915
126	0	3	0.06	-3.20285	-4.406	-2.98915
127	0	3	0.06	-2.90485	-5.77	-4.03915
128	0	3	0.06	-0.77885	-4.743	-3.31915
129	0	3	0.06	-1.21685	-5.006	-1.64815
130	0	3	0.06	-1.28285	-7.441	-2.04915
131	0	3	0.06	-0.84385	-7.178	-3.71915
132	0	3	0.06	0.84515	-6.406	-1.31015
133	0	3	0.06	1.29215	-6.138	-3.01215
134	0	1	-0.12	1.31515	-8.212	-2.40215
135	0	3	0.06	1.21415	-8.591	-3.41815
136	0	3	0.06	0.76715	-8.859	-1.71715
137	0	2	-0.18	2.80215	-8.191	-2.00815
138	0	3	0.06	3.20715	-9.201	-2.06015
139	0	3	0.06	3.35115	-7.544	-2.69215
140	0	3	0.06	2.90415	-7.812	-0.991148
141	0	2	-0.18	-2.80585	-5.399	2.00685
142	0	1	-0.12	-1.31685	-5.378	2.40185
143	0	1	-0.12	-0.74485	-6.806	2.32685
144	0	1	-0.12	0.74315	-6.785	2.72085
145	0	3	0.06	-3.34385	-6.034	2.67885
146	0	3	0.06	-3.20285	-4.406	2.05885
147	0	3	0.06	-2.90485	-5.77	1.00885
148	0	3	0.06	-0.77885	-4.743	1.72885
149	0	3	0.06	-1.21685	-5.006	3.39985
150	0	3	0.06	-1.28285	-7.441	2.99885
151	0	3	0.06	-0.84385	-7.178	1.32885
152	0	3	0.06	0.84515	-6.406	3.73785
153	0	3	0.06	1.29215	-6.138	2.03585
154	0	1	-0.12	1.31515	-8.212	2.64585
155	0	3	0.06	1.21415	-8.591	1.62985
156	0	3	0.06	0.76715	-8.859	3.33085
157	0	2	-0.18	2.80215	-8.191	3.03985
158	0	3	0.06	3.20715	-9.201	2.98785
159	0	3	0.06	3.35115	-7.544	2.35585
160	0	3	0.06	2.90415	-7.812	4.05685
161	0	2	-0.18	-2.80585	1.396	-3.04115
162	0	1	-0.12	-1.31685	1.417	-2.64615
163	0	1	-0.12	-0.74485	-0.011	-2.72115
164	0	1	-0.12	0.74315	0.01	-2.32715
165	0	3	0.06	-3.34385	0.761	-2.36915
166	0	3	0.06	-3.20285	2.389	-2.98915
167	0	3	0.06	-2.90485	1.025	-4.03915
168	0	3	0.06	-0.77885	2.052	-3.31915
169	0	3	0.06	-1.21685	1.789	-1.64815
170	0	3	0.06	-1.28285	-0.646	-2.04915
171	0	3	0.06	-0.84385	-0.383	-3.71915
172	0	3	0.06	0.84515	0.389	-1.31015
173	0	3	0.06	1.29215	0.657	-3.01215
174	0	1	-0.12	1.31515	-1.417	-2.40215
175	0	3	0.06	1.21415	-1.796	-3.41815
176	0	3	0.06	0.76715	-2.064	-1.71715
177	0	2	-0.18	2.80215	-1.396	-2.00815
178	0	3	0.06	3.20715	-2.406	-2.06015
179	0	3	0.06	3.35115	-0.749	-2.69215
180	0	3	0.06	2.90415	-1.017	-0.991148
181	0	2	-0.18	-2.80585	1.396	2.00685
182	0	1	-0.12	-1.31685	1.417	2.40185
183	0	1	-0.12	-0.74485	-0.011	2.32685
184	0	1	-0.12	0.74315	0.01	2.72085
185	0	3	0.06	-3.34385	0.761	2.67885
186	0	3	0.06	-3.20285	2.389	2.05885
187	0	3	0.06	-2.90485	1.025	1.00885
188	0	3	0.06	-0.77885	2.052	1.72885
189	0	3	0.06	-1.21685	1.789	3.39985
190	0	3	0.06	-1.28285	-0.646	2.99885
191	0	3	0.06	-0.84385	-0.383	1.32885
192	0	3	0.06	0.84515	0.389	3.73785
193	0	3	0.06	1.29215	0.657	2.03585
194	0	1	-0.12	1.31515	-1.417	2.64585
195	0	3	0.06	1.21415	-1.796	1.62985
196	0	3	0.06	0.76715	-2.064	3.33085
197	0	2	-0.18	2.80215	-1.396	3.03985
198	0	3	0.06	3.20715	-2.406	2.98785
199	0	3	0.06	3.35115	-0.749	2.35585
200	0	3	0.06	2.90415	-1.017	4.05685
201	0	2	-0.18	-2.80585	8.191	-3.04115
202	0	1	-0.12	-1.31685	8.212	-2.64615
203	0	1	-0.12	-0.74485	6.784	-2.72115
204	0	1	-0.12	0.74315	6.805	-2.32715
205	0	3	0.06	-3.34385	7.556	-2.36915
206	0	3	0.06	-3.20285	9.184	-2.98915
207	0	3	0.06	-2.90485	7.82	-4.03915
208	0	3	0.06	-0.77885	8.847	-3.31915
209	0	3	0.06	-1.21685	8.584	-1.64815
210	0	3	0.06	-1.28285	6.149	-2.04915
211	0	3	0.06	-0.84385	6.412	-3.71915
212	0	3	0.06	0.84515	7.184	-1.31015
213	0	3	0.06	1.29215	7.452	-3.01215
214	0	1	-0.12	1.31515	5.378	-2.40215
215	0	3	0.06	1.21415	4.999	-3.41815
216	0	3	0.06	0.76715	4.731	-1.71715
217	0	2	-0.18	2.80215	5.399	-2.00815
218	0	3	0.06	3.20715	4.389	-2.06015
219	0	3	0.06	3.35115	6.046	-2.69215
220	0	3	0.06	2.90415	5.778	-0.991148
221	0	2	-0.18	-2.80585	8.191	2.00685
222	0	1	-0.12	-1.31685	8.212	2.40185
223	0	1	-0.12	-0.74485	6.784	2.32685
224	0	1	-0.12	0.74315	6.805	2.72085
225	0	3	0.06	-3.34385	7.556	2.67885
226	0	3	0.06	-3.20285	9.184	2.05885
227	0	3	0.06	-2.90485	7.82	1.00885
228	0	3	0.06	-0.77885	8.847	1.72885
229	0	3	0.06	-1.21685	8.584	3.39985
230	0	3	0.06	-1.28285	6.149	2.99885
231	0	3	0.06	-0.84385	6.412	1.32885
232	0	3	0.06	0.84515	7.184	3.73785
233	0	3	0.06	1.29215	7.452	2.03585
234	0	1	-0.12	1.31515	5.378	2.64585
235	0	3	0.06	1.21415	4.999	1.62985
236	0	3	0.06	0.76715	4.731	3.33085
237	0	2	-0.18	2.80215	5.399	3.03985
238	0	3	0.06	3.20715	4.389	2.98785
239	0	3	0.06	3.35115	6.046	2.35585
240	0	3	0.06	2.90415	5.778	4.05685
241	0	2	-0.18	5.88915	-5.399	-3.04115
242	0	1	-0.12	7.37815	-5.378	-2.64615
243	0	1	-0.12	7.95015	-6.806	-2.72115
244	0	1	-0.12	9.43815	-6.785	-2.32715
245	0	3	0.06	5.35115	-6.034	-2.36915
246	0	3	0.06	5.49215	-4.406	-2.98915
247	0	3	0.06	5.79015	-5.77	-4.03915
248	0	3	0.06	7.91615	-4.743	-3.31915
249	0	3	0.06	7.47815	-5.006	-1.64815
250	0	3	0.06	7.41215	-7.441	-2.04915
251	0	3	0.06	7.85115	-7.178	-3.71915
252	0	3	0.06	9.54015	-6.406	-1.31015
253	0	3	0.06	9.98715	-6.138	-3.01215
254	0	1	-0.12	10.0101	-8.212	-2.40215
255	0	3	0.06	9.90915	-8.591	-3.41815
256	0	3	0.06	9.46215	-8.859	-1.71715
257	0	2	-0.18	11.4971	-8.191	-2.00815
258	0	3	0.06	11.9021	-9.201	-2.06015
259	0	3	0.06	12.0462	-7.544	-2.69215
260	0	3	0.06	11.5991	-7.812	-0.991148
261	0	2	-0.18	5.88915	-5.399	2.00685
262	0	1	-0.12	7.37815	-5.378	2.40185
263	0	1	-0.12	7.95015	-6.806	2.32685
264	0	1	-0.12	9.43815	-6.785	2.72085
265	0	3	0.06	5.35115	-6.034	2.67885
266	0	3	0.06	5.49215	-4.406	2.05885
267	0	3	0.06	5.79015	-5.77	1.00885
268	0	3	0.06	7.91615	-4.743	1.72885
269	0	3	0.06	7.47815	-5.006	3.39985
270	0	3	0.06	7.41215	-7.441	2.99885
271	0	3	0.06	7.85115	-7.178	1.32885
272	0	3	0.06	9.54015	-6.406	3.73785
273	0	3	0.06	9.98715	-6.138	2.03585
274	0	1	-0.12	10.0101	-8.212	2.64585
275	0	3	0.06	9.90915	-8.591	1.62985
276	0	3	0.06	9.46215	-8.859	3.33085
277	0	2	-0.18	11.4971	-8.191	3.03985
278	0	3	0.06	11.9021	-9.201	2.98785
279	0	3	0.06	12.0462	-7.544	2.35585
280	0	3	0.06	11.5991	-7.812	4.05685
281	0	2	-0.18	5.88915	1.396	-3.04115
282	0	1	-0.12	7.37815	1.417	-2.64615
283	0	1	-0.12	7.95015	-0.011	-2.72115
284	0	1	-0.12	9.43815	0.01	-2.32715
285	0	3	0.06	5.35115	0.761	-2.36915
286	0	3	0.06	5.49215	2.389	-2.98915
287	0	3	0.06	5.79015	1.025	-4.03915
288	0	3	0.06	7.91615	2.052	-3.31915
289	0	3	0.06	7.47815	1.789	-1.64815
290	0	3	0.06	7.41215	-0.646	-2.04915
291	0	3	0.06	7.85115	-0.383	-3.71915
292	0	3	0.06	9.54015	0.389	-1.31015
293	0	3	0.06	9.98715	0.657	-3.01215
294	0	1	-0.12	10.0101	-1.417	-2.40215
295	0	3	0.06	9.90915	-1.796	-3.41815
296	0	3	0.06	9.46215	-2.064	-1.71715
297	0	2	-0.18	11.4971	-1.396	-2.00815
298	0	3	0.06	11.9021	-2.406	-2.06015
299	0	3	0.06	12.0462	-0.749	-2.69215
300	0	3	0.06	11.5991	-1.017	-0.991148
301	0	2	-0.18	5.88915	1.396	2.00685
302	0	1	-0.12	7.37815	1.417	2.40185
303	0	1	-0.12	7.95015	-0.011	2.32685
304	0	1	-0.12	9.43815	0.01	2.72085
305	0	3	0.06	5.35115	0.761	2.67885
306	0	3	0.06	5.49215	2.389	2.05885
307	0	3	0.06	5.79015	1.025	1.00885
308	0	3	0.06	7.91615	2.052	1.72885
309	0	3	0.06	7.47815	1.789	3.39985
310	0	3	0.06	7.41215	-0.646	2.99885
311	0	3	0.06	7.85115	-0.383	1.32885
312	0	3	0.06	9.54015	0.389	3.73785
313	0	3	0.06	9.98715	0.657	2.03585
314	0	1	-0.12	10.0101	-1.417	2.64585
315	0	3	0.06	9.90915	-1.796	1.62985
316	0	3	0.06	9.46215	-2.064	3.33085
317	0	2	-0.18	11.4971	-1.396	3.03985
318	0	3	0.06	11.9021	-2.406	2.98785
319	0	3	0.06	12.0462	-0.749	2.35585
320	0	3	0.06	11.5991	-1.017	4.05685
321	0	2	-0.18	5.88915	8.191	-3.04115
322	0	1	-0.12	7.37815	8.212	-2.64615
323	0	1	-0.12	7.95015	6.784	-2.72115
324	0	1	-0.12	9.43815	6.805	-2.32715
325	0	3	0.06	5.35115	7.556	-2.36915
326	0	3	0.06	5.49215	9.184	-2.98915
327	0	3	0.06	5.79015	7.82	-4.03915
328	0	3	0.06	7.91615	8.847	-3.31915
329	0	3	0.06	7.47815	8.584	-1.64815
330	0	3	0.06	7.41215	6.149	-2.04915
331	0	3	0.06	7.85115	6.412	-3.71915
332	0	3	0.06	9.54015	7.184	-1.31015
333	0	3	0.06	9.98715	7.452	-3.01215
334	0	1	-0.12	10.0101	5.378	-2.40215
335	0	3	0.06	9.90915	4.999	-3.41815
336	0	3	0.06	9.46215	4.731	-1.71715
337	0	2	-0.18	11.4971	5.399	-2.00815
338	0	3	0.06	11.9021	4.389	-2.06015
339	0	3	0.06	12.0462	6.046	-2.69215
340	0	3	0.06	11.5991	5.778	-0.991148
341	0	2	-0.18	5.88915	8.191	2.00685
342	0	1	-0.12	7.37815	8.212	2.40185
343	0	1	-0.12	7.95015	6.784	2.32685
344	0	1	-0.12	9.43815	6.805	2.72085
345	0	3	0.06	5.35115	7.556	2.67885
346	0	3	0.06	5.49215	9.184	2.05885
347	0	3	0.06	5.79015	7.82	1.00885
348	0	3	0.06	7.91615	8.847	1.72885
349	0	3	0.06	7.47815	8.584	3.39985
350	0	3	0.06	7.41215	6.149	2.99885
351	0	3	0.06	7.85115	6.412	1.32885
352	0	3	0.06	9.54015	7.184	3.73785
353	0	3	0.06	9.98715	7.452	2.03585
354	0	1	-0.12	10.0101	5.378	2.64585
355	0	3	0.06	9.90915	4.999	1.62985
356	0	3	0.06	9.46215	4.731	3.33085
357	0	2	-0.18	11.4971	5.399	3.03985
358	0	3	0.06	11.9021	4.389	2.98785
359	0	3	0.06	12.0462	6.046	2.35585
360	0	3	0.06	11.5991	5.778	4.05685

Bonds

	1	1	1	2
	2	2	1	5
	3	2	1	6
	4	2	1	7
	5	1	2	3
	6	2	2	8
	7	2	2	9
	8	1	3	4
	9	2	3	10
	10	2	3	11
	11	2	4	12
	12	2	4	13
	13	1	4	14
	14	2	14	15
	15	2	14	16
	16	1	14	17
	17	2	17	18
	18	2	17	19
	19	2	17	20
	20	1	21	22
	21	2	21	25
	22	2	21	26
	23	2	21	27
	24	1	22	23
	25	2	22	28
	26	2	22	29
	27	1	23	24
	28	2	23	30
	29	2	23	31
	30	2	24	32
	31	2	24	33
	32	1	24	34
	33	2	34	35
	34	2	34	36
	35	1	34	37
	36	2	37	38
	37	2	37	39
	38	2	37	40
	39	1	41	42
	40	2	41	45
	41	2	41	46
	42	2	41	47
	43	1	42	43
	44	2	42	48
	45	2	42	49
	46	1	43	44
	47	2	43	50
	48	2	43	51
	49	2	44	52
	50	2	44	53
	51	1	44	54
	52	2	54	55
	53	2	54	56
	54	1	54	57
	55	2	57	58
	56	2	57	59
	57	2	57	60
	58	1	61	62
	59	2	61	65
	60	2	61	66
	61	2	61	67
	62	1	62	63
	63	2	62	68
	64	2	62	69
	65	1	63	64
	66	2	63	70
	67	2	63	71
	68	2	64	72
	69	2	64	73
	70	1	64	74
	71	2	74	75
	72	2	74	76
	73	1	74	77
	74	2	77	78
	75	2	77	79
	76	2	77	80
	77	1	81	82
	78	2	81	85
	79	2	81	86
	80	2	81	87
	81	1	82	83
	82	2	82	88
	83	2	82	89
	84	1	83	84
	85	2	83	90
	86	2	83	91
	87	2	84	92
	88	2	84	93
	89	1	84	94
	90	2	94	95
	91	2	94	96
	92	1	94	97
	93	2	97	98
	94	2	97	99
	95	2	97	100
	96	1	101	102
	97	2	101	105
	98	2	101	106
	99	2	101	107
	100	1	102	103
	101	2	102	108
	102	2	102	109
	103	1	103	104
	104	2	103	110
	105	2	103	111
	106	2	104	112
	107	2	104	113
	108	1	104	114
	109	2	114	115
	110	2	114	116
	111	1	114	117
	112	2	117	118
	113	2	117	119
	114	2	117	120
	115	1	121	122
	116	2	121	125
	117	2	121	126
	118	2	121	127
	119	1	122	123
	120	2	122	128
	121	2	122	129
	122	1	123	124
	123	2	123	130
	124	2	123	131
	125	2	124	132
	126	2	124	133
	127	1	124	134
	128	2	134	135
	129	2	134	136
	130	1	134	137
	131	2	137	138
	132	2	137	139
	133	2	137	140
	134	1	141	142
	135	2	141	145
	136	2	141	146
	137	2	141	147
	138	1	142	143
	139	2	142	148
	140	2	142	149
	141	1	143	144
	142	2	143	150
	143	2	143	151
	144	2	144	152
	145	2	144	153
	146	1	144	154
	147	2	154	155
	148	2	154	156
	149	1	154	157
	150	2	157	158
	151	2	157	159
	152	2	157	160
	153	1	161	162
	154	2	161	165
	155	2	161	166
	156	2	161	167
	157	1	162	163
	158	2	162	168
	159	2	162	169
	160	1	163	164
	161	2	163	170
	162	2	163	171
	163	2	164	172
	164	2	164	173
	165	1	164	174
	166	2	174	175
	167	2	174	176
	168	1	174	177
	169	2	177	178
	170	2	177	179
	171	2	177	180
	172	1	181	182
	173	2	181	185
	174	2	181	186
	175	2	181	187
	176	1	182	183
	177	2	182	188
	178	2	182	189
	179	1	183	184
	180	2	183	190
	181	2	183	191
	182	2	184	192
	183	2	184	193
	184	1	184	194
	185	2	194	195
	186	2	194	196
	187	1	194	197
	188	2	197	198
	189	2	197	199
	190	2	197	200
	191	1	201	202
	192	2	201	205
	193	2	201	206
	194	2	201	207
	195	1	202	203
	196	2	202	208
	197	2	202	209
	198	1	203	204
	199	2	203	210
	200	2	203	211
	201	2	204	212
	202	2	204	213
	203	1	204	214
	204	2	214	215
	205	2	214	216
	206	1	214	217
	207	2	217	218
	208	2	217	219
	209	2	217	220
	210	1	221	222
	211	2	221	225
	212	2	221	226
	213	2	221	227
	214	1	222	223
	215	2	222	228
	216	2	222	229
	217	1	223	224
	218	2	223	230
	219	2	223	231
	220	2	224	232
	221	2	224	233
	222	1	224	234
	223	2	234	235
	224	2	234	236
	225	1	234	237
	226	2	237	238
	227	2	237	239
	228	2	237	240
	229	1	241	242
	230	2	241	245
	231	2	241	246
	232	2	241	247
	233	1	242	243
	234	2	242	248
	235	2	242	249
	236	1	243	244
	237	2	243	250
	238	2	243	251
	239	2	244	252
	240	2	244	253
	241	1	244	254
	242	2	254	255
	243	2	254	256
	244	1	254	257
	245	2	257	258
	246	2	257	259
	247	2	257	260
	248	1	261	262
	249	2	261	265
	250	2	261	266
	251	2	261	267
	252	1	262	263
	253	2	262	268
	254	2	262	269
	255	1	263	264
	256	2	263	270
	257	2	263	271
	258	2	264	272
	259	2	264	273
	260	1	264	274
	261	2	274	275
	262	2	274	276
	263	1	274	277
	264	2	277	278
	265	2	277	279
	266	2	277	280
	267	1	281	282
	268	2	281	285
	269	2	281	286
	270	2	281	287
	271	1	282	283
	272	2	282	288
	273	2	282	289
	274	1	283	284
	275	2	283	290
	276	2	283	291
	277	2	284	292
	278	2	284	293
	279	1	284	294
	280	2	294	295
	281	2	294	296
	282	1	294	297
	283	2	297	298
	284	2	297	299
	285	2	297	300
	286	1	301	302
	287	2	301	305
	288	2	301	306
	289	2	301	307
	290	1	302	303
	291	2	302	308
	292	2	302	309
	293	1	303	304
	294	2	303	310
	295	2	303	311
	296	2	304	312
	297	2	304	313
	298	1	304	314
	299	2	314	315
	300	2	314	316
	301	1	314	317
	302	2	317	318
	303	2	317	319
	304	2	317	320
	305	1	321	322
	306	2	321	325
	307	2	321	326
	308	2	321	327
	309	1	322	323
	310	2	322	328
	311	2	322	329
	312	1	323	324
	313	2	323	330
	314	2	323	331
	315	2	324	332
	316	2	324	333
	317	1	324	334
	318	2	334	335
	319	2	334	336
	320	1	334	337
	321	2	337	338
	322	2	337	339
	323	2	337	340
	324	1	341	342
	325	2	341	345
	326	2	341	346
	327	2	341	347
	328	1	342	343
	329	2	342	348
	330	2	342	349
	331	1	343	344
	332	2	343	350
	333	2	343	351
	334	2	344	352
	335	2	344	353
	336	1	344	354
	337	2	354	355
	338	2	354	356
	339	1	354	357
	340	2	357	358
	341	2	357	359
	342	2	357	360

Angles

	1	2	2	1	5
	2	2	2	1	6
	3	2	2	1	7
	4	3	5	1	6
	5	3	5	1	7
	6	3	6	1	7
	7	1	1	2	3
	8	2	1	2	8
	9	2	1	2	9
	10	2	3	2	8
	11	2	3	2	9
	12	3	8	2	9
	13	1	2	3	4
	14	2	2	3	10
	15	2	2	3	11
	16	2	4	3	10
	17	2	4	3	11
	18	3	10	3	11
	19	2	3	4	12
	20	2	3	4	13
	21	1	3	4	14
	22	3	12	4	13
	23	2	12	4	14
	24	2	13	4	14
	25	2	4	14	15
	26	2	4	14	16
	27	1	4	14	17
	28	3	15	14	16
	29	2	15	14	17
	30	2	16	14	17
	31	2	14	17	18
	32	2	14	17	19
	33	2	14	17	20
	34	3	18	17	19
	35	3	18	17	20
	36	3	19	17	20
	37	2	22	21	25
	38	2	22	21	26
	39	2	22	21	27
	40	3	25	21	26
	41	3	25	21	27
	42	3	26	21	27
	43	1	21	22	23
	44	2	21	22	28
	45	2	21	22	29
	46	2	23	22	28
	47	2	23	22	29
	48	3	28	22	29
	49	1	22	23	24
	50	2	22	23	30
	51	2	22	23	31
	52	2	24	23	30
	53	2	24	23	31
	54	3	30	23	31
	55	2	23	24	32
	56	2	23	24	33
	57	1	23	24	34
	58	3	32	24	33
	59	2	32	24	34
	60	2	33	24	34
	61	2	24	34	35
	62	2	24	34	36
	63	1	24	34	37
	64	3	35	34	36
	65	2	35	34	37
	66	2	36	34	37
	67	2	34	37	38
	68	2	34	37	39
	69	2	34	37	40
	70	3	38	37	39
	71	3	38	37	40
	72	3	39	37	40
	73	2	42	41	45
	74	2	42	41	46
	75	2	42	41	47
	76	3	45	41	46
	77	3	45	41	47
	78	3	46	41	47
	79	1	41	42	43
	80	2	41	42	48
	81	2	41	42	49
	82	2	43	42	48
	83	2	43	42	49
	84	3	48	42	49
	85	1	42	43	44
	86	2	42	43	50
	87	2	42	43	51
	88	2	44	43	50
	89	2	44	43	51
	90	3	50	43	51
	91	2	43	44	52
	92	2	43	44	53
	93	1	43	44	54
	94	3	52	44	53
	95	2	52	44	54
	96	2	53	44	54
	97	2	44	54	55
	98	2	44	54	56
	99	1	44	54	57
	100	3	55	54	56
	101	2	55	54	57
	102	2	56	54	57
	103	2	54	57	58
	104	2	54	57	59
	105	2	54	57	60
	106	3	58	57	59
	107	3	58	57	60
	108	3	59	57	60
	109	2	62	61	65
	110	2	62	61	66
	111	2	62	61	67
	112	3	65	61	66
	113	3	65	61	67
	114	3	66	61	67
	115	1	61	62	63
	116	2	61	62	68
	117	2	61	62	69
	118	2	63	62	68
	119	2	63	62	69
	120	3	68	62	69
	121	1	62	63	64
	122	2	62	63	70
	123	2	62	63	71
	124	2	64	63	70
	125	2	64	63	71
	126	3	70	63	71
	127	2	63	64	72
	128	2	63	64	73
	129	1	63	64	74
	130	3	72	64	73
	131	2	72	64	74
	132	2	73	64	74
	133	2	64	74	75
	134	2	64	74	76
	135	1	64	74	77
	136	3	75	74	76
	137	2	75	74	77
	138	2	76	74	77
	139	2	74	77	78
	140	2	74	77	79
	141	2	74	77	80
	142	3	78	77	79
	143	3	78	77	80
	144	3	79	77	80
	145	2	82	81	85
	146	2	82	81	86
	147	2	82	81	87
	148	3	85	81	86
	149	3	85	81	87
	150	3	86	81	87
	151	1	81	82	83
	152	2	81	82	88
	153	2	81	82	89
	154	2	83	82	88
	155	2	83	82	89
	156	3	88	82	89
	157	1	82	83	84
	158	2	82	83	90
	159	2	82	83	91
	160	2	84	83	90
	161	2	84	83	91
	162	3	90	83	91
	163	2	83	84	92
	164	2	83	84	93
	165	1	83	84	94
	166	3	92	84	93
	167	2	92	84	94
	168	2	93	84	94
	169	2	84	94	95
	170	2	84	94	96
	171	1	84	94	97
	172	3	95	94	96
	173	2	95	94	97
	174	2	96	94	97
	175	2	94	97	98
	176	2	94	97	99
	177	2	94	97	100
	178	3	98	97	99
	179	3	98	97	100
	180	3	99	97	100
	181	2	102	101	105
	182	2	102	101	106
	183	2	102	101	107
	184	3	105	101	106
	185	3	105	101	107
	186	3	106	101	107
	187	1	101	102	103
	188	2	101	102	108
	189	2	101	102	109
	190	2	103	102	108
	191	2	103	102	109
	192	3	108	102	109
	193	1	102	103	104
	194	2	102	103	110
	195	2	102	103	111
	196	2	104	103	110
	197	2	104	103	111
	198	3	110	103	111
	199	2	103	104	112
	200	2	103	104	113
	201	1	103	104	114
	202	3	112	104	113
	203	2	112	104	114
	204	2	113	104	114
	205	2	104	114	115
	206	2	104	114	116
	207	1	104	114	117
	208	3	115	114	116
	209	2	115	114	117
	210	2	116	114	117
	211	2	114	117	118
	212	2	114	117	119
	213	2	114	117	120
	214	3	118	117	119
	215	3	118	117	120
	216	3	119	117	120
	217	2	122	121	125
	218	2	122	121	126
	219	2	122	121	127
	220	3	125	121	126
	221	3	125	121	127
	222	3	126	121	127
	223	1	121	122	123
	224	2	121	122	128
	225	2	121	122	129
	226	2	123	122	128
	227	2	123	122	129
	228	3	128	122	129
	229	1	122	123	124
	230	2	122	123	130
	231	2	122	123	131
	232	2	124	123	130
	233	2	124	123	131
	234	3	130	123	131
	235	2	123	124	132
	236	2	123	124	133
	237	1	123	124	134
	238	3	132	124	133
	239	2	132	124	134
	240	2	133	124	134
	241	2	124	134	135
	242	2	124	134	136
	243	1	124	134	137
	244	3	135	134	136
	245	2	135	134	137
	246	2	136	134	137
	247	2	134	137	138
	248	2	134	137	139
	249	2	134	137	140
	250	3	138	137	139
	251	3	138	137	140
	252	3	139	137	140
	253	2	142	141	145
	254	2	142	141	146
	255	2	142	141	147
	256	3	145	141	146
	257	3	145	141	147
	258	3	146	141	147
	259	1	141	142	143
	260	2	141	142	148
	261	2	141	142	149
	262	2	143	142	148
	263	2	143	142	149
	264	3	148	142	149
	265	1	142	143	144
	266	2	142	143	150
	267	2	142	143	151
	268	2	144	143	150
	269	2	144	143	151
	270	3	150	143	151
	271	2	143	144	152
	272	2	143	144	153
	273	1	143	144	154
	274	3	152	144	153
	275	2	152	144	154
	276	2	153	144	154
	277	2	144	154	155
	278	2	144	154	156
	279	1	144	154	157
	280	3	155	154	156
	281	2	155	154	157
	282	2	156	154	157
	283	2	154	157	158
	284	2	154	157	159
	285	2	154	157	160
	286	3	158	157	159
	287	3	158	157	160
	288	3	159	157	160
	289	2	162	161	165
	290	2	162	161	166
	291	2	162	161	167
	292	3	165	161	166
	293	3	165	161	167
	294	3	166	161	167
	295	1	161	162	163
	296	2	161	162	168
	297	2	161	162	169
	298	2	163	162	168
	299	2	163	162	169
	300	3	168	162	169
	301	1	162	163	164
	302	2	162	163	170
	303	2	162	163	171
	304	2	164	163	170
	305	2	164	163	171
	306	3	170	163	171
	307	2	163	164	172
	308	2	163	164	173
	309	1	163	164	174
	310	3	172	164	173
	311	2	172	164	174
	312	2	173	164	174
	313	2	164	174	175
	314	2	164	174	176
	315	1	164	174	177
	316	3	175	174	176
	317	2	175	174	177
	318	2	176	174	177
	319	2	174	177	178
	320	2	174	177	179
	321	2	174	177	180
	322	3	178	177	179
	323	3	178	177	180
	324	3	179	177	180
	325	2	182	181	185
	326	2	182	181	186
	327	2	182	181	187
	328	3	185	181	186
	329	3	185	181	187
	330	3	186	181	187
	331	1	181	182	183
	332	2	181	182	188
	333	2	181	182	189
	334	2	183	182	188
	335	2	183	182	189
	336	3	188	182	189
	337	1	182	183	184
	338	2	182	183	190
	339	2	182	183	191
	340	2	184	183	190
	341	2	184	183	191
	342	3	190	183	191
	343	2	183	184	192
	344	2	183	184	193
	345	1	183	184	194
	346	3	192	184	193
	347	2	192	184	194
	348	2	193	184	194
	349	2	184	194	195
	350	2	184	194	196
	351	1	184	194	197
	352	3	195	194	196
	353	2	195	194	197
	354	2	196	194	197
	355	2	194	197	198
	356	2	194	197	199
	357	2	194	197	200
	358	3	198	197	199
	359	3	198	197	200
	360	3	199	197	200
	361	2	202	201	205
	362	2	202	201	206
	363	2	202	201	207
	364	3	205	201	206
	365	3	205	201	207
	366	3	206	201	207
	367	1	201	202	203
	368	2	201	202	208
	369	2	201	202	209
	370	2	203	202	208
	371	2	203	202	209
	372	3	208	202	209
	373	1	202	203	204
	374	2	202	203	210
	375	2	202	203	211
	376	2	204	203	210
	377	2	204	203	211
	378	3	210	203	211
	379	2	203	204	212
	380	2	203	204	213
	381	1	203	204	214
	382	3	212	204	213
	383	2	212	204	214
	384	2	213	204	214
	385	2	204	214	215
	386	2	204	214	216
	387	1	204	214	217
	388	3	215	214	216
	389	2	215	214	217
	390	2	216	214	217
	391	2	214	217	218
	392	2	214	217	219
	393	2	214	217	220
	394	3	218	217	219
	395	3	218	217	220
	396	3	219	217	220
	397	2	222	221	225
	398	2	222	221	226
	399	2	222	221	227
	400	3	225	221	226
	401	3	225	221	227
	402	3	226	221	227
	403	1	221	222	223
	404	2	221	222	228
	405	2	221	222	229
	406	2	223	222	228
	407	2	223	222	229
	408	3	228	222	229
	409	1	222	223	224
	410	2	222	223	230
	411	2	222	223	231
	412	2	224	223	230
	413	2	224	223	231
	414	3	230	223	231
	415	2	223	224	232
	416	2	223	224	233
	417	1	223	224	234
	418	3	232	224	233
	419	2	232	224	234
	420	2	233	224	234
	421	2	224	234	235
	422	2	224	234	236
	423	1	224	234	237
	424	3	235	234	236
	425	2	235	234	237
	426	2	236	234	237
	427	2	234	237	238
	428	2	234	237	239
	429	2	234	237	240
	430	3	238	237	239
	431	3	238	237	240
	432	3	239	237	240
	433	2	242	241	245
	434	2	242	241	246
	435	2	242	241	247
	436	3	245	241	246
	437	3	245	241	247
	438	3	246	241	247
	439	1	241	242	243
	440	2	241	242	248
	441	2	241	242	249
	442	2	243	242	248
	443	2	243	242	249
	444	3	248	242	249
	445	1	242	243	244
	446	2	242	243	250
	447	2	242	243	251
	448	2	244	243	250
	449	2	244	243	251
	450	3	250	243	251
	451	2	243	244	252
	452	2	243	244	253
	453	1	243	244	254
	454	3	252	244	253
	455	2	252	244	254
	456	2	253	244	254
	457	2	244	254	255
	458	2	244	254	256
	459	1	244	254	257
	460	3	255	254	256
	461	2	255	254	257
	462	2	256	254	257
	463	2	254	257	258
	464	2	254	257	259
	465	2	254	257	260
	466	3	258	257	259
	467	3	258	257	260
	468	3	259	257	260
	469	2	262	261	265
	470	2	262	261	266
	471	2	262	261	267
	472	3	265	261	266
	473	3	265	261	267
	474	3	266	261	267
	475	1	261	262	263
	476	2	261	262	268
	477	2	261	262	269
	478	2	263	262	268
	479	2	263	262	269
	480	3	268	262	269
	481	1	262	263	264
	482	2	262	263	270
	483	2	262	263	271
	484	2	264	263	270
	485	2	264	263	271
	486	3	270	263	271
	487	2	263	264	272
	488	2	263	264	273
	489	1	263	264	274
	490	3	272	264	273
	491	2	272	264	274
	492	2	273	264	274
	493	2	264	274	275
	494	2	264	274	276
	495	1	264	274	277
	496	3	275	274	276
	497	2	275	274	277
	498	2	276	274	277
	499	2	274	277	278
	500	2	274	277	279
	501	2	274	277	280
	502	3	278	277	279
	503	3	278	277	280
	504	3	279	277	280
	505	2	282	281	285
	506	2	282	281	286
	507	2	282	281	287
	508	3	285	281	286
	509	3	285	281	287
	510	3	286	281	287
	511	1	281	282	283
	512	2	281	282	288
	513	2	281	282	289
	514	2	283	282	288
	515	2	283	282	289
	516	3	288	282	289
	517	1	282	283	284
	518	2	282	283	290
	519	2	282	283	291
	520	2	284	283	290
	521	2	284	283	291
	522	3	290	283	291
	523	2	283	284	292
	524	2	283	284	293
	525	1	283	284	294
	526	3	292	284	293
	527	2	292	284	294
	528	2	293	284	294
	529	2	284	294	295
	530	2	284	294	296
	531	1	284	294	297
	532	3	295	294	296
	533	2	295	294	297
	534	2	296	294	297
	535	2	294	297	298
	536	2	294	297	299
	537	2	294	297	300
	538	3	298	297	299
	539	3	298	297	300
	540	3	299	297	300
	541	2	302	301	305
	542	2	302	301	306
	543	2	302	301	307
	544	3	305	301	306
	545	3	305	301	307
	546	3	306	301	307
	547	1	301	302	303
	548	2	301	302	308
	549	2	301	302	309
	550	2	303	302	308
	551	2	303	302	309
	552	3	308	302	309
	553	1	302	303	304
	554	2	302	303	310
	555	2	302	303	311
	556	2	304	303	310
	557	2	304	303	311
	558	3	310	303	311
	559	2	303	304	312
	560	2	303	304	313
	561	1	303	304	314
	562	3	312	304	313
	563	2	312	304	314
	564	2	313	304	314
	565	2	304	314	315
	566	2	304	314	316
	567	1	304	314	317
	568	3	315	314	316
	569	2	315	314	317
	570	2	316	314	317
	571	2	314	317	318
	572	2	314	317	319
	573	2	314	317	320
	574	3	318	317	319
	575	3	318	317	320
	576	3	319	317	320
	577	2	322	321	325
	578	2	322	321	326
	579	2	322	321	327
	580	3	325	321	326
	581	3	325	321	327
	582	3	326	321	327
	583	1	321	322	323
	584	2	321	322	328
	585	2	321	322	329
	586	2	323	322	328
	587	2	323	322	329
	588	3	328	322	329
	589	1	322	323	324
	590	2	322	323	330
	591	2	322	323	331
	592	2	324	323	330
	593	2	324	323	331
	594	3	330	323	331
	595	2	323	324	332
	596	2	323	324	333
	597	1	323	324	334
	598	3	332	324	333
	599	2	332	324	334
	600	2	333	324	334
	601	2	324	334	335
	602	2	324	334	336
	603	1	324	334	337
	604	3	335	334	336
	605	2	335	334	337
	606	2	336	334	337
	607	2	334	337	338
	608	2	334	337	339
	609	2	334	337	340
	610	3	338	337	339
	611	3	338	337	340
	612	3	339	337	340
	613	2	342	341	345
	614	2	342	341	346
	615	2	342	341	347
	616	3	345	341	346
	617	3	345	341	347
	618	3	346	341	347
	619	1	341	342	343
	620	2	341	342	348
	621	2	341	342	349
	622	2	343	342	348
	623	2	343	342	349
	624	3	348	342	349
	625	1	342	343	344
	626	2	342	343	350
	627	2	342	343	351
	628	2	344	343	350
	629	2	344	343	351
	630	3	350	343	351
	631	2	343	344	352
	632	2	343	344	353
	633	1	343	344	354
	634	3	352	344	353
	635	2	352	344	354
	636	2	353	344	354
	637	2	344	354	355
	638	2	344	354	356
	639	1	344	354	357
	640	3	355	354	356
	641	2	355	354	357
	642	2	356	354	357
	643	2	354	357	358
	644	2	354	357	359
	645	2	354	357	360
	646	3	358	357	359
	647	3	358	357	360
	648	3	359	357	360

Dihedrals

	1	2	5	1	2	3
	2	3	5	1	2	8
	3	3	5	1	2	9
	4	2	6	1	2	3
	5	3	6	1	2	8
	6	3	6	1	2	9
	7	2	7	1	2	3
	8	3	7	1	2	8
	9	3	7	1	2	9
	10	1	1	2	3	4
	11	2	1	2	3	10
	12	2	1	2	3	11
	13	2	8	2	3	4
	14	3	8	2	3	10