360
Atoms. Timestep: 0
2 -11.3674 -5.34346 -3.29492
1 -10.0351 -5.35684 -2.5263
1 -9.32121 -6.72058 -2.62744
1 -7.95043 -6.75442 -1.92136
3 -12.0824 -6.04572 -2.85937
3 -11.8135 -4.34862 -3.26756
3 -11.2247 -5.61511 -4.34471
3 -9.38514 -4.57661 -2.93007
3 -10.2128 -5.11025 -1.4766
3 -9.9562 -7.50771 -2.21538
3 -9.1729 -6.96858 -3.6816
3 -8.07281 -6.55589 -0.856589
3 -7.32464 -5.9517 -2.31369
1 -7.22515 -8.10287 -2.1122
3 -7.17161 -8.34457 -3.17468
3 -7.80434 -8.90404 -1.65153
2 -5.79721 -8.11811 -1.5497
3 -5.33805 -9.09565 -1.70559
3 -5.17332 -7.37983 -2.05352
3 -5.78357 -7.90733 -0.481001
2 -11.4543 -5.21079 2.04963
1 -9.96319 -5.19444 2.40514
1 -9.30766 -6.57826 2.25061
1 -7.82587 -6.57685 2.65733
3 -11.9921 -5.96587 2.62511
3 -11.9158 -4.24817 2.26676
3 -11.6082 -5.42734 0.992812
3 -9.45091 -4.46241 1.77792
3 -9.85483 -4.85049 3.43564
3 -9.84623 -7.30281 2.86718
3 -9.40748 -6.9182 1.2181
3 -7.73933 -6.24155 3.69386
3 -7.28777 -5.84616 2.05024
1 -7.17861 -7.96465 2.50639
3 -7.28173 -8.30643 1.47489
3 -7.70563 -8.68849 3.13311
2 -5.6956 -7.95955 2.89072
3 -5.24006 -8.92421 2.67543
3 -5.14771 -7.20269 2.333
3 -5.56338 -7.76039 3.9549
2 -11.5225 1.49972 -2.65007
1 -9.99241 1.4291 -2.52927
1 -9.48818 -0.0256252 -2.43127
1 -7.96417 -0.119709 -2.22904
3 -12.014 0.969223 -1.83353
3 -11.8685 2.53191 -2.62468
3 -11.869 1.0584 -3.58558
3 -9.54315 1.92841 -3.39302
3 -9.68592 1.98841 -1.64158
3 -9.99264 -0.522468 -1.59783
3 -9.76535 -0.57472 -3.33699
3 -7.6638 0.532661 -1.4066
3 -7.46017 0.256712 -3.12337
1 -7.49675 -1.55872 -1.93441
3 -7.75757 -2.20877 -2.77138
3 -8.03018 -1.95006 -1.06755
2 -5.9891 -1.65002 -1.67127
3 -5.68801 -2.68575 -1.51464
3 -5.41646 -1.26251 -2.51471
3 -5.71147 -1.07959 -0.784751
2 -11.4267 1.76932 1.82917
1 -9.91855 1.66214 2.08827
1 -9.43873 0.198825 2.15875
1 -7.92905 0.0908137 2.4303
3 -12.0002 1.22764 2.58321
3 -11.7488 2.80951 1.86125
3 -11.6915 1.36376 0.852247
3 -9.3818 2.19396 1.30041
3 -9.68656 2.17106 3.02797
3 -9.98101 -0.322904 2.95251
3 -9.67534 -0.316337 1.22446
3 -7.68973 0.619594 3.35585
3 -7.38268 0.602948 1.63801
1 -7.44589 -1.36614 2.54236
3 -7.71616 -1.91854 1.64249
3 -7.96229 -1.85602 3.3692
2 -5.93202 -1.4699 2.76344
3 -5.63766 -2.50607 2.9301
3 -5.38542 -1.09625 1.8977
3 -5.61835 -0.891818 3.63431
2 -11.1255 8.27426 -3.3253
1 -9.69797 8.20605 -2.77359
1 -9.24328 6.7579 -2.50451
1 -7.73901 6.67163 -2.20305
3 -11.8355 7.78346 -2.65931
3 -11.4375 9.31078 -3.45074
3 -11.1878 7.79159 -4.30264
3 -9.03092 8.6783 -3.50001
3 -9.62196 8.7899 -1.85401
3 -9.81227 6.33138 -1.67611
3 -9.45745 6.14247 -3.38224
3 -7.50986 7.19669 -1.27539
3 -7.19694 7.19694 -2.99178
1 -7.21536 5.22677 -2.12788
3 -7.56394 4.66035 -2.99171
3 -7.62266 4.72481 -1.25128
2 -5.68269 5.1682 -2.11014
3 -5.32886 4.1385 -2.0894
3 -5.26966 5.63576 -3.00527
3 -5.27429 5.6891 -1.24553
2 -11.413 7.81606 1.6566
1 -9.93999 7.93698 2.06637
1 -9.18268 6.60067 1.94911
1 -7.71825 6.69893 2.41425
3 -11.9189 7.03215 2.21979
3 -11.9513 8.74341 1.84693
3 -11.5133 7.58231 0.597719
3 -9.46172 8.70431 1.45665
3 -9.90041 8.29799 3.09643
3 -9.7018 5.85668 2.5594
3 -9.21742 6.24472 0.91682
3 -7.69192 7.14617 3.41207
3 -7.17246 7.38044 1.75896
1 -7.02102 5.32683 2.46805
3 -7.05776 4.84626 1.48914
3 -7.57447 4.67681 3.14818
2 -5.56415 5.41436 2.94292
3 -5.20524 4.43558 3.26158
3 -4.91806 5.76874 2.14006
3 -5.4547 6.09459 3.79052
2 -2.85993 -5.46942 -2.63454
1 -1.33338 -5.40698 -2.47911
1 -0.688459 -6.79975 -2.33802
1 0.849636 -6.73886 -2.27724
3 -3.33902 -5.75461 -1.69753
3 -3.25138 -4.49629 -2.93341
3 -3.15578 -6.19242 -3.39938
3 -0.912933 -4.90546 -3.35438
3 -1.07902 -4.79099 -1.61274
3 -1.07853 -7.3021 -1.45139
3 -0.975121 -7.42019 -3.19237
3 1.16632 -6.06397 -1.4795
3 1.21526 -6.30648 -3.21209
1 1.49498 -8.12303 -2.07481
3 1.14452 -8.80507 -2.85318
3 1.16838 -8.54673 -1.12378
2 3.02971 -8.08006 -2.11495
3 3.43772 -9.09127 -2.12364
3 3.39137 -7.57603 -3.01329
3 3.43475 -7.55917 -1.2465
2 -2.76046 -5.27862 1.62472
1 -1.27666 -5.30258 2.00937
1 -0.694269 -6.73037 2.01801
1 0.735276 -6.78914 2.58995
3 -3.35753 -5.78934 2.37902
3 -3.13333 -4.25779 1.55108
3 -2.93699 -5.77224 0.669985
3 -0.712273 -4.68355 1.31024
3 -1.16541 -4.83843 2.99242
3 -1.33071 -7.38703 2.61828
3 -0.713268 -7.12576 0.999569
3 0.682403 -6.59225 3.66548
3 1.34872 -5.99622 2.15603
1 1.42689 -8.14516 2.3492
3 1.5492 -8.31305 1.27839
3 0.797932 -8.95856 2.71382
2 2.79828 -8.23533 3.03147
3 3.22265 -9.23351 2.92647
3 3.50099 -7.52494 2.59811
3 2.72374 -8.02299 4.09894
2 -3.00693 1.51018 -2.66816
1 -1.51719 1.58593 -2.30399
1 -0.810516 0.224266 -2.45401
1 0.692523 0.293289 -2.12186
3 -3.53391 0.789015 -2.04228
3 -3.48337 2.48021 -2.53536
3 -3.1438 1.21327 -3.70993
3 -1.02917 2.32786 -2.94085
3 -1.41384 1.93749 -1.27546
3 -1.29311 -0.512905 -1.80914
3 -0.925071 -0.142236 -3.47816
3 0.838524 0.756139 -1.14382
3 1.18443 0.941605 -2.85201
1 1.36949 -1.09314 -2.12462
3 1.17272 -1.6087 -3.06759
3 0.941327 -1.71515 -1.33656
2 2.89045 -1.00787 -1.92502
3 3.34411 -1.99864 -1.94587
3 3.35867 -0.421738 -2.71631
3 3.14393 -0.54507 -0.971974
2 -2.88468 1.20413 1.76847
1 -1.38714 1.29798 2.08574
1 -0.722919 -0.084913 2.21842
1 0.792526 0.00823818 2.46562
3 -3.4123 0.627443 2.52933
3 -3.33676 2.19477 1.73291
3 -3.04985 0.721427 0.804988
3 -0.893978 1.87437 1.30224
3 -1.24913 1.86198 3.01029
3 -1.18883 -0.634665 3.04024
3 -0.907069 -0.665389 1.31213
3 0.974241 0.541823 3.40279
3 1.24638 0.606848 1.67342
1 1.47979 -1.36893 2.52061
3 1.25254 -1.93581 1.61676
3 1.07995 -1.94961 3.35399
2 3.00202 -1.25065 2.66747
3 3.47171 -2.23394 2.68708
3 3.42987 -0.692937 1.83397
3 3.26991 -0.732817 3.59006
2 -2.79158 8.05976 -2.78395
1 -1.34033 7.98954 -2.28338
1 -0.73237 6.58056 -2.43547
1 0.741731 6.50822 -1.99218
3 -3.43435 7.37856 -2.22397
3 -3.18719 9.07057 -2.67081
3 -2.85433 7.79587 -3.84298
3 -0.73881 8.71143 -2.84187
3 -1.30139 8.29717 -1.23628
3 -1.32198 5.86559 -1.85957
3 -0.80577 6.26809 -3.48013
3 0.818098 6.81658 -0.947296
3 1.32072 7.23102 -2.57257
1 1.35031 5.10118 -2.16434
3 1.23125 4.77086 -3.20043
3 0.796322 4.38921 -1.54956
2 2.8421 5.05584 -1.79412
3 3.19672 4.02375 -1.77754
3 3.43692 5.60385 -2.52895
3 3.02265 5.49803 -0.811204
2 -2.76082 8.05507 1.74236
1 -1.2648 8.1052 2.08211
1 -0.611671 6.70895 2.13575
1 0.893238 6.78314 2.46073
3 -3.31727 7.52821 2.52053
3 -3.16337 9.06701 1.67734
3 -2.93886 7.55536 0.786914
3 -0.747511 8.726 1.34544
3 -1.14014 8.59953 3.05095
3 -1.11415 6.0989 2.89282
3 -0.748334 6.19738 1.17889
3 1.03672 7.31773 3.40468
3 1.39573 7.37713 1.69293
1 1.55724 5.39543 2.55929
3 1.37177 4.83092 1.6433
3 1.09936 4.82928 3.37382
2 3.07085 5.47922 2.79873
3 3.52154 4.48609 2.78827
3 3.54935 6.06801 2.01601
3 3.29578 5.94358 3.76259
2 5.75911 -5.18957 -2.52662
1 7.24003 -5.27554 -2.12827
1 7.78882 -6.71405 -2.20197
1 9.27776 -6.80962 -1.81514
3 5.12563 -5.6941 -1.79484
3 5.44185 -4.14777 -2.59157
3 5.58473 -5.65105 -3.50227
3 7.82472 -4.63589 -2.79425
3 7.37139 -4.87342 -1.12322
3 7.20481 -7.37647 -1.55713
3 7.66115 -7.08629 -3.22228
3 9.39055 -6.57922 -0.756369
3 9.85086 -6.05061 -2.35288
1 9.88095 -8.19499 -2.11547
3 9.82039 -8.38808 -3.1887
3 9.29382 -8.97719 -1.63121
2 11.3465 -8.31906 -1.6802
3 11.7195 -9.3246 -1.87764
3 11.9806 -7.61829 -2.22645
3 11.4634 -8.12329 -0.61409
2 5.88749 -5.268 1.76806
1 7.41335 -5.33774 1.93534
1 7.93984 -6.78681 1.8747
1 9.4232 -6.90274 2.28084
3 5.38512 -5.86873 2.52929
3 5.5328 -4.24357 1.87822
3 5.57382 -5.63448 0.790572
3 7.90154 -4.72859 1.17108
3 7.67258 -4.88945 2.89825
3 7.35038 -7.41429 2.55029
3 7.79439 -7.19391 0.871745
3 9.54653 -6.46429 3.2749
3 10.0503 -6.3153 1.60587
1 9.92002 -8.36285 2.31567
3 9.91349 -8.78593 1.30962
3 9.23726 -8.97253 2.91212
2 11.3242 -8.49745 2.92353
3 11.6311 -9.543 2.96602
3 12.0694 -7.95092 2.34505
3 11.3479 -8.11448 3.94503
2 5.83714 1.59111 -2.46024
1 7.36827 1.51374 -2.38146
1 7.86871 0.0568782 -2.30157
1 9.40096 -0.0290379 -2.18498
3 5.37754 1.21633 -1.54511
3 5.51427 2.62212 -2.60503
3 5.45231 1.00216 -3.29582
3 7.79574 1.99196 -3.26791
3 7.71937 2.08017 -1.51464
3 7.41953 -0.456073 -1.44768
3 7.55285 -0.483692 -3.19959
3 9.72939 0.454657 -1.26346
3 9.8618 0.527419 -3.00412
1 9.91405 -1.48045 -2.21872
3 9.59078 -1.968 -3.13943
3 9.48625 -2.05229 -1.39603
2 11.4431 -1.56724 -2.14165
3 11.7837 -2.5983 -2.21326
3 11.9172 -1.01617 -2.95168
3 11.8201 -1.15981 -1.2064
2 5.95675 1.28742 1.78247
1 7.43495 1.28845 2.19064
1 8.06253 -0.117984 2.15092
1 9.52908 -0.112436 2.61799
3 5.34974 0.782408 2.53673
3 5.59015 2.30943 1.69033
3 5.80413 0.783751 0.826868
3 7.99671 1.95796 1.5355
3 7.51858 1.69778 3.20106
3 7.48917 -0.797127 2.78833
3 8.01139 -0.519924 1.13627
3 9.58845 0.316478 3.621
3 10.1181 0.540148 1.97221
1 10.15 -1.52007 2.635
3 10.1076 -1.95443 1.63678
3 9.55642 -2.17245 3.27465
2 11.6017 -1.53132 3.12938
3 11.9673 -2.55501 3.22093
3 12.2528 -1.00109 2.43439
3 11.695 -1.05585 4.10714
2 5.79772 8.29218 -2.7555
1 7.23935 8.18231 -2.24884
1 7.83379 6.7864 -2.50645
1 9.29676 6.6717 -2.05484
3 5.14704 7.57033 -2.2651
3 5.3915 9.28489 -2.57383
3 5.74364 8.11075 -3.8286
3 7.84478 8.94192 -2.74715
3 7.27173 8.41365 -1.18366
3 7.23564 6.03129 -1.99466
3 7.77399 6.55987 -3.57403
3 9.376 6.89636 -0.989015
3 9.88568 7.4296 -2.5764
1 9.90545 5.28576 -2.3384
3 9.8125 5.04394 -3.39938
3 9.35987 4.51253 -1.79667
2 11.388 5.22431 -1.95215
3 11.8271 4.26233 -2.2087
3 11.9635 5.98815 -2.47441
3 11.5283 5.38155 -0.883702
2 5.82711 8.27416 1.75474
1 7.25377 8.20718 2.30699
1 7.85982 6.79703 2.18706
1 9.27103 6.70463 2.79107
3 5.18875 7.55576 2.26128
3 5.38779 9.25744 1.9084
3 5.79896 8.05626 0.688934
3 7.87535 8.93347 1.78307
3 7.23563 8.51899 3.35285
3 7.20685 6.0845 2.69595
3 7.88891 6.50218 1.1362
3 9.23895 7.02826 3.83508
3 9.92757 7.40432 2.2687
1 9.8612 5.28315 2.71711
3 9.87896 4.94263 1.6809
3 9.21669 4.58741 3.25835
2 11.278 5.21815 3.3015
3 11.687 4.21028 3.21806
3 11.9493 5.90039 2.77642
3 11.2789 5.49566 4.3573
360
Atoms. Timestep: 1000
2 -10.9656 -3.93036 -2.58671
1 -9.46855 -4.00535 -2.40461
1 -8.86828 -5.36845 -2.18722
1 -7.34165 -5.35689 -1.88411
3 -11.6695 -4.06926 -1.65847
3 -11.1362 -2.93248 -2.8888
3 -11.2891 -4.50118 -3.39222
3 -8.96451 -3.5066 -3.21566
3 -9.46215 -3.43636 -1.48278
3 -9.36148 -5.89317 -1.40028
3 -8.9319 -5.86094 -3.146
3 -7.08059 -4.73795 -1.00828
3 -6.85021 -4.88215 -2.71773
1 -6.6983 -6.75455 -1.61094
3 -6.81424 -7.32943 -2.56265
3 -7.15494 -7.16463 -0.809284
2 -5.25908 -6.77352 -1.22059
3 -4.93657 -7.61641 -0.632624
3 -4.54605 -6.83969 -2.0889
3 -4.98473 -5.83767 -0.742183
2 -11.0767 -3.9707 1.24963
1 -9.55962 -4.0933 1.55432
1 -8.98406 -5.46624 1.88781
1 -7.47296 -5.3184 2.27082
3 -11.7512 -4.22521 2.04571
3 -11.3883 -3.04492 0.732752
3 -11.3902 -4.67483 0.47232
3 -8.95392 -3.63962 0.770881
3 -9.45055 -3.35513 2.36331
3 -9.52821 -6.03672 2.65095
3 -9.04108 -6.15975 0.988544
3 -7.48742 -4.82576 3.22105
3 -7.06541 -4.70102 1.52749
1 -6.79162 -6.67659 2.46975
3 -7.11431 -7.30384 1.63734
3 -7.23132 -7.35188 3.18719
2 -5.24851 -6.83273 2.49859
3 -5.09802 -7.92703 2.62795
3 -4.90064 -6.54278 1.52265
3 -4.59958 -6.26933 3.27896
2 -11.0809 1.90238 -2.61853
1 -9.63965 1.73445 -2.1688
1 -9.12045 0.277788 -1.98618
1 -7.61408 0.0453774 -1.62968
3 -11.7858 2.15531 -1.86792
3 -11.1092 2.60102 -3.39926
3 -11.3757 0.976512 -3.07051
3 -9.02753 2.14088 -2.89658
3 -9.39421 2.31933 -1.30658
3 -9.78903 -0.202455 -1.28261
3 -9.27854 -0.104196 -2.98996
3 -7.37589 0.396212 -0.678565
3 -7.01674 0.604459 -2.32359
1 -7.27411 -1.50255 -1.70527
3 -7.51219 -1.83866 -2.78224
3 -7.95465 -2.02511 -1.04623
2 -5.82088 -1.83415 -1.42104
3 -5.5818 -2.74607 -2.0155
3 -5.13876 -1.18815 -1.94758
3 -5.63637 -1.80978 -0.366943
2 -10.9309 1.80077 1.5733
1 -9.43245 1.60438 1.91248
1 -9.08933 0.0832056 2.01705
1 -7.63307 -0.208586 2.38851
3 -11.5431 1.34072 2.38626
3 -11.2881 2.90267 1.61716
3 -11.1889 1.37659 0.628435
3 -8.85748 2.13043 1.21794
3 -9.35384 1.98767 2.9585
3 -9.74435 -0.363504 2.86574
3 -9.36976 -0.475105 1.12489
3 -7.44605 0.168947 3.39638
3 -6.96813 0.293599 1.69362
1 -7.24179 -1.67734 2.39454
3 -7.54924 -2.06479 1.45735
3 -7.82943 -2.19272 3.20431
2 -5.71701 -1.95634 2.47124
3 -5.49282 -3.08497 2.43879
3 -5.18597 -1.37192 1.72901
3 -5.33067 -1.67617 3.45621
2 -10.3672 7.67074 -2.80187
1 -8.8992 7.35325 -2.53717
1 -8.71509 5.85432 -2.25047
1 -7.32725 5.59937 -1.83651
3 -11.0013 7.37352 -1.98756
3 -10.4469 8.71706 -2.98055
3 -10.7785 7.21684 -3.70135
3 -8.39972 7.86105 -3.38659
3 -8.53284 7.8382 -1.63248
3 -9.47575 5.5049 -1.46025
3 -8.9288 5.14996 -3.02933
3 -7.00653 6.19784 -1.03301
3 -6.68264 5.83545 -2.72774
1 -6.93368 4.21942 -1.49882
3 -6.95582 3.51342 -2.3558
3 -7.48754 3.77869 -0.733204
2 -5.56805 4.12143 -0.926307
3 -5.46435 3.32617 -0.160164
3 -4.93521 3.89468 -1.744
3 -5.27313 5.07718 -0.470925
2 -11.0572 6.45604 1.07887
1 -9.53992 6.65137 1.33839
1 -8.88451 5.28763 1.63953
1 -7.45578 5.40501 2.16727
3 -11.5316 5.64269 1.64849
3 -11.6129 7.35432 1.19086
3 -11.1964 6.19397 0.0223311
3 -8.98544 7.16984 0.533771
3 -9.41295 7.25991 2.1739
3 -9.51134 4.7847 2.34102
3 -8.91266 4.63971 0.803432
3 -7.51499 6.06474 3.04369
3 -6.87254 5.78375 1.3442
1 -6.91178 4.03891 2.61924
3 -7.145 3.43283 1.69207
3 -7.47305 3.5224 3.43528
2 -5.41375 4.08604 3.04112
3 -5.10846 3.13378 3.5651
3 -4.72589 4.34057 2.19227
3 -5.31889 4.87646 3.77799
2 -2.74651 -4.34536 -2.47478
1 -1.21619 -4.40522 -2.51401
1 -0.594481 -5.76867 -2.56531
1 0.939082 -5.63835 -2.40037
3 -2.96094 -4.9075 -1.59058
3 -3.2466 -3.34808 -2.45634
3 -3.2036 -4.98914 -3.27227
3 -0.889065 -3.77892 -3.30664
3 -0.908177 -3.76721 -1.7057
3 -0.993764 -6.19931 -1.56247
3 -0.857042 -6.46995 -3.44931
3 1.29399 -4.87163 -1.64138
3 1.34042 -5.33328 -3.34861
1 1.58957 -7.00892 -2.1712
3 1.25744 -7.6046 -2.97588
3 1.25715 -7.49254 -1.2641
2 3.16696 -6.86222 -2.07011
3 3.75883 -7.82023 -2.28268
3 3.60908 -6.14661 -2.77875
3 3.31439 -6.62074 -1.00856
2 -2.6022 -4.31532 1.68243
1 -1.10988 -4.38286 1.42796
1 -0.522048 -5.81903 1.62453
1 1.041 -5.77006 1.80908
3 -2.87356 -4.62725 2.7222
3 -2.95005 -3.34927 1.61225
3 -3.21436 -4.87678 0.967861
3 -0.825148 -3.91743 0.454031
3 -0.669486 -3.64152 2.14348
3 -0.834399 -6.22975 2.57692
3 -0.795317 -6.46787 0.804842
3 1.45256 -5.14738 2.57226
3 1.44953 -5.27122 0.914177
1 1.71361 -7.1465 1.80597
3 1.35952 -7.75597 0.981873
3 1.35144 -7.64852 2.70861
2 3.22116 -7.14306 1.97237
3 3.5645 -8.19353 2.1185
3 3.69284 -6.86618 1.02578
3 3.61371 -6.55969 2.79639
2 -3.58063 1.13242 -1.76284
1 -2.08652 1.49307 -1.72483
1 -1.12825 0.212971 -1.70422
1 0.376166 0.563768 -1.56404
3 -3.86738 0.273327 -1.06655
3 -4.06776 1.91586 -1.28515
3 -3.95076 0.957203 -2.73423
3 -1.80222 2.09258 -2.56729
3 -1.82421 1.99585 -0.772925
3 -1.44958 -0.357721 -0.843612
3 -1.30171 -0.350138 -2.64877
3 0.577169 1.2124 -0.719252
3 0.731895 1.2427 -2.36954
1 1.26096 -0.777693 -1.53041
3 1.0505 -1.34723 -2.42918
3 1.0397 -1.3854 -0.669906
2 2.77766 -0.458428 -1.67558
3 3.40082 -1.37695 -1.74455
3 2.91487 0.181497 -2.57144
3 3.14426 0.119286 -0.889272
2 -2.89243 1.29745 2.21429
1 -1.35829 1.19581 2.19677
1 -0.680285 -0.162166 2.15455
1 0.96668 -0.0749702 2.16822
3 -3.303 0.830408 3.06283
3 -3.19558 2.32435 2.15196
3 -3.35313 0.754509 1.44805
3 -0.973996 1.82081 1.37437
3 -1.0521 1.88994 3.03993
3 -1.01364 -0.781951 3.03451
3 -0.96856 -0.822208 1.34173
3 1.31405 0.614258 2.99127
3 1.31922 0.253724 1.1665
1 1.5268 -1.43907 2.44168
3 1.07998 -2.22198 1.82018
3 1.32548 -1.64543 3.42033
2 2.99906 -1.40363 2.15255
3 3.65821 -2.31701 2.62713
3 3.20339 -1.37244 1.09284
3 3.55525 -0.533822 2.46655
2 -2.84896 6.27044 -2.6247
1 -1.48748 6.51493 -2.11831
1 -0.51218 5.37104 -2.35781
1 0.953508 5.34127 -1.88826
3 -3.28883 5.49775 -2.01728
3 -3.47882 7.11126 -2.58267
3 -2.75114 6.00349 -3.65595
3 -1.26979 7.46246 -2.63511
3 -1.4688 6.73899 -1.05631
3 -1.03905 4.54322 -1.89127
3 -0.463518 5.15717 -3.46558
3 1.00009 5.81822 -0.878371
3 1.53229 6.05971 -2.3596
1 1.5767 3.92369 -2.02439
3 1.34167 3.47006 -2.94299
3 1.02835 3.37617 -1.26853
2 3.11561 3.90567 -1.86591
3 3.4568 2.87174 -1.87383
3 3.73508 4.41864 -2.59639
3 3.41581 4.3555 -0.917348
2 -2.67797 6.78691 1.98279
1 -1.20339 6.93142 2.12857
1 -0.438529 5.59872 1.89921
1 1.07594 5.63218 2.20912
3 -3.11054 6.11216 2.66692
3 -3.16037 7.76764 2.02536
3 -2.79061 6.38798 0.990563
3 -0.861396 7.74214 1.5151
3 -1.00966 7.13784 3.17244
3 -0.863828 4.78529 2.47621
3 -0.557797 5.32181 0.831103
3 1.17746 5.96666 3.24774
3 1.62533 6.44873 1.66398
1 1.81171 4.31925 1.90928
3 1.50207 4.08887 0.925563
3 1.37025 3.62906 2.63877
2 3.3847 4.28641 2.0322
3 3.71589 3.2489 1.87154
3 3.92552 4.82961 1.30106
3 3.77476 4.63121 3.02266
2 5.21347 -3.7762 -2.81096
1 6.65156 -4.15961 -2.30341
1 7.06861 -5.61406 -2.19005
1 8.57683 -5.75832 -1.79483
3 4.42128 -3.86847 -1.96957
3 5.15242 -2.67534 -2.98639
3 4.9236 -4.26136 -3.67407
3 7.29425 -3.74595 -3.08753
3 6.92243 -3.51826 -1.46475
3 6.33674 -6.10308 -1.46548
3 6.85185 -6.15418 -3.13527
3 8.62844 -5.2954 -0.815191
3 9.18222 -5.13941 -2.45264
1 9.24163 -7.19312 -1.78621
3 9.20886 -7.74021 -2.76423
3 8.71049 -7.77604 -1.04811
2 10.7155 -7.11089 -1.47814
3 11.1401 -8.1122 -1.13253
3 11.2855 -6.7801 -2.3009
3 10.8802 -6.44137 -0.630865
2 5.7281 -3.97868 1.32737
1 7.18717 -4.47477 1.63336
1 7.322 -6.00039 1.62612
1 8.69033 -6.59675 2.00943
3 5.03184 -4.45707 2.02715
3 5.70053 -2.87529 1.48351
3 5.51908 -4.19544 0.289662
3 7.88222 -4.06611 0.967507
3 7.40577 -3.91053 2.55208
3 6.62073 -6.41262 2.25697
3 6.86761 -6.29558 0.633231
3 9.04112 -6.20032 2.98544
3 9.46065 -6.44626 1.26282
1 8.62218 -8.1528 2.31204
3 8.19748 -8.63586 1.41646
3 7.88541 -8.39744 3.12171
2 9.95404 -8.8252 2.76668
3 9.88003 -9.90974 2.70416
3 10.7838 -8.61356 2.18116
3 10.202 -8.73155 3.79067
2 5.78941 1.43227 -2.59209
1 7.30141 1.16061 -2.46987
1 7.69422 -0.22028 -2.03412
1 9.19257 -0.557855 -1.86778
3 5.48466 1.49733 -1.50221
3 5.61708 2.41278 -3.00203
3 5.23748 0.68387 -3.15906
3 7.71724 1.35485 -3.46621
3 7.69011 1.92149 -1.89133
3 7.16568 -0.640949 -1.15441
3 7.43783 -1.003 -2.70772
3 9.6646 0.325173 -1.4134
3 9.703 -0.649908 -2.8567
1 9.63172 -1.78188 -1.09843
3 9.05361 -2.62571 -1.50365
3 9.40121 -1.72141 -0.00849049
2 11.1003 -2.13253 -1.05586
3 11.4424 -2.93695 -0.357692
3 11.4744 -2.36263 -2.06183
3 11.6624 -1.28846 -0.682291
2 5.84761 1.73217 1.18102
1 7.28816 1.45793 1.56416
1 7.64139 0.0039229 2.05491
1 9.06437 -0.0523061 2.53343
3 5.22251 1.80859 1.99554
3 5.76821 2.62293 0.565285
3 5.38101 0.941586 0.59944
3 7.98773 1.7788 0.768244
3 7.49282 2.22723 2.2494
3 6.89295 -0.39165 2.74708
3 7.55934 -0.584625 1.13422
3 9.22872 0.745706 3.29308
3 9.75993 0.185075 1.68588
1 9.44621 -1.34508 3.15416
3 9.24747 -2.25385 2.56958
3 8.93456 -1.56117 4.11818
2 10.9841 -1.35673 3.44537
3 11.1776 -2.35203 3.69113
3 11.6448 -1.09606 2.6282
3 11.3664 -0.702367 4.26217
2 5.27882 7.03565 -2.4317
1 6.71854 7.09898 -2.06476
1 7.19474 5.62422 -1.81535
1 8.65465 5.50472 -1.37109
3 4.60797 6.96504 -1.59057
3 4.88239 7.95958 -2.88587
3 5.13141 6.24115 -3.22017
3 7.31037 7.54591 -2.83379
3 6.751 7.83403 -1.29004
3 6.585 5.19524 -0.915988
3 7.00683 5.00907 -2.68529
3 8.74166 5.84759 -0.325907
3 9.22758 6.09069 -2.02012
1 9.16889 4.11173 -1.46886
3 8.98235 3.7767 -2.41689
3 8.68955 3.48001 -0.690962
2 10.7215 4.14867 -1.33882
3 11.1012 3.12223 -1.23046
3 11.0641 4.61447 -2.29487
3 11.1485 4.67859 -0.477362
2 5.40809 7.80176 1.41394
1 6.87872 7.40255 1.74545
1 7.17089 5.9329 2.13767
1 8.71152 5.77682 2.32128
3 4.80845 7.99536 2.33786
3 5.43254 8.74013 0.905374
3 4.85646 7.04865 0.639367
3 7.4366 7.47465 0.806061
3 7.30851 8.08775 2.51051
3 6.7428 5.683 3.07326
3 6.83781 5.21434 1.42665
3 8.94112 6.16498 3.28375
3 9.25286 6.34428 1.60614
1 9.34197 4.33159 2.39016
3 9.16706 3.82161 1.39227
3 8.81541 3.70032 3.17788
2 10.8618 4.20218 2.6795
3 11.2254 3.15127 2.76337
3 11.4597 4.77368 1.91295
3 11.1978 4.63836 3.70144
360
Atoms. Timestep: 2000
2 -10.7212 -3.45529 -2.16545
1 -9.14936 -3.56279 -2.1319
1 -8.4956 -4.88262 -1.90108
1 -7.02017 -4.94938 -1.73382
3 -11.2338 -3.77291 -1.21863
3 -11.1447 -2.42875 -2.4036
3 -11.1098 -4.15256 -2.95295
3 -8.80001 -3.12942 -3.10343
3 -8.76485 -2.8666 -1.39253
3 -8.99766 -5.3642 -1.01273
3 -8.915 -5.52145 -2.651
3 -6.82063 -4.35193 -0.898563
3 -6.4044 -4.50538 -2.57864
1 -6.29195 -6.34579 -1.39512
3 -6.17986 -6.92931 -2.29961
3 -6.80198 -7.0043 -0.657765
2 -4.84486 -6.17903 -0.809641
3 -4.43781 -7.21135 -0.612907
3 -4.20194 -5.59433 -1.47014
3 -5.02537 -5.55826 0.0888277
2 -10.599 -4.38926 1.53258
1 -9.06003 -4.02577 1.8833
1 -8.25345 -5.26845 2.27993
1 -6.75781 -5.01867 2.66179
3 -11.1273 -4.80449 2.37693
3 -11.0744 -3.45441 1.20923
3 -10.7122 -5.11123 0.737145
3 -8.61591 -3.42448 1.06438
3 -8.98943 -3.26866 2.63856
3 -8.63437 -5.69259 3.21592
3 -8.45418 -6.09231 1.61191
3 -6.70395 -4.25643 3.45786
3 -6.08299 -4.59516 1.87611
1 -6.0142 -6.2985 3.11134
3 -6.05499 -6.99935 2.31347
3 -6.54456 -6.89949 3.83429
2 -4.59475 -6.10935 3.60176
3 -4.27331 -7.02093 4.02616
3 -3.96736 -5.9826 2.74111
3 -4.42443 -5.258 4.23438
2 -10.5533 1.82275 -2.30706
1 -9.04156 1.56618 -2.19088
1 -8.41263 0.184519 -2.1291
1 -6.88606 0.148585 -1.79658
3 -11.1501 1.14513 -1.63178
3 -10.8582 2.80856 -1.96058
3 -10.8097 1.7318 -3.34334
3 -8.55233 2.12852 -2.97926
3 -8.78651 2.11373 -1.30009
3 -9.03982 -0.362602 -1.36154
3 -8.5424 -0.373911 -3.0406
3 -6.72819 0.716667 -0.874968
3 -6.32307 0.667279 -2.56686
1 -6.29989 -1.23532 -1.49023
3 -6.36335 -1.94308 -2.34934
3 -6.9343 -1.69313 -0.691548
2 -4.8362 -1.11616 -1.00917
3 -4.48903 -1.83974 -0.237178
3 -4.12877 -1.30751 -1.81733
3 -4.64258 -0.0586682 -0.622174
2 -10.7087 1.11611 1.81479
1 -9.16747 1.13066 1.6889
1 -8.53878 -0.294207 1.80129
1 -7.00738 -0.132917 2.02114
3 -10.9592 0.729789 2.77185
3 -11.0741 2.12541 1.73306
3 -11.1284 0.563156 0.973575
3 -8.86976 1.70345 0.819849
3 -8.93727 1.80853 2.51475
3 -9.06387 -0.842184 2.59156
3 -8.64263 -0.984699 0.934482
3 -6.76591 0.532856 2.86451
3 -6.5734 0.151488 1.09181
1 -6.45665 -1.52999 2.39264
3 -6.60056 -2.14062 1.51664
3 -7.07094 -1.88184 3.22225
2 -5.01698 -1.53719 2.84901
3 -4.64552 -2.41974 3.43054
3 -4.28475 -1.36605 2.03086
3 -4.81005 -0.704481 3.46841
2 -10.0699 6.62738 -3.19046
1 -8.63063 6.6169 -2.60147
1 -7.93705 5.21907 -2.39347
1 -6.58187 5.22662 -1.71611
3 -10.7251 6.03359 -2.55679
3 -10.4502 7.62072 -3.30462
3 -10 6.10449 -4.08462
3 -7.94617 7.32399 -3.13421
3 -8.7704 6.9628 -1.56708
3 -8.6054 4.56374 -1.84685
3 -7.92679 4.82365 -3.4679
3 -6.6012 5.90282 -0.80804
3 -5.89363 5.77364 -2.41296
1 -6.10404 3.82042 -1.42893
3 -5.94602 3.44446 -2.43972
3 -6.86906 3.24749 -0.984234
2 -4.79417 3.64224 -0.652852
3 -4.58 2.58043 -0.64251
3 -3.84324 4.05989 -1.07961
3 -4.88683 3.91701 0.427657
2 -10.3589 6.52085 0.878582
1 -8.94124 6.25114 1.41438
1 -8.59914 4.86676 1.88198
1 -7.12893 4.81251 2.37267
3 -11.0182 6.53871 1.7475
3 -10.2877 7.57585 0.515339
3 -10.6327 5.83531 0.0924618
3 -8.22173 6.49155 0.644604
3 -8.75682 6.93442 2.20049
3 -9.30056 4.51912 2.68829
3 -8.73198 4.14787 1.02897
3 -7.05193 5.45069 3.28124
3 -6.51931 5.28724 1.62275
1 -6.57901 3.42903 2.77334
3 -6.56067 2.77036 1.91666
3 -7.19035 3.01729 3.53336
2 -5.27705 3.40047 3.52865
3 -4.96144 2.35614 3.69951
3 -4.46189 3.96268 3.00767
3 -5.33903 3.9279 4.45938
2 -2.56754 -3.51925 -2.87558
1 -0.992101 -3.71352 -2.80267
1 -0.472747 -5.0243 -2.27376
1 1.11157 -5.07155 -2.08817
3 -3.10391 -3.52759 -1.90654
3 -2.81346 -2.5315 -3.2582
3 -3.02127 -4.20183 -3.5546
3 -0.61155 -3.47364 -3.75355
3 -0.723653 -2.87029 -2.20277
3 -0.971056 -5.42666 -1.36711
3 -0.612019 -5.7801 -3.05241
3 1.52011 -4.49008 -1.25505
3 1.57789 -4.56495 -2.91636
1 1.67593 -6.48827 -2.07065
3 1.57639 -6.91552 -3.02676
3 1.1645 -7.15496 -1.38377
2 3.14194 -6.53249 -1.76423
3 3.37346 -7.578 -1.92452
3 3.86364 -6.19373 -2.54553
3 3.32473 -6.24205 -0.728936
2 -2.60618 -3.70647 1.07009
1 -1.07977 -3.66594 1.39244
1 -0.488002 -5.04551 1.69604
1 0.992224 -5.04145 1.88098
3 -3.10082 -4.23035 1.91319
3 -2.79266 -2.66645 1.03847
3 -2.80294 -4.15579 0.100647
3 -0.430941 -3.16655 0.648129
3 -0.962587 -3.13441 2.29954
3 -0.918635 -5.40534 2.63758
3 -0.706572 -5.82587 0.968689
3 1.30852 -4.31518 2.6001
3 1.45039 -4.60638 1.01889
1 1.64268 -6.43084 2.13414
3 1.47269 -7.18668 1.35816
3 1.28162 -6.82141 3.10579
2 3.15947 -6.24559 2.20539
3 3.50337 -7.25176 2.40652
3 3.67029 -6.07869 1.24475
3 3.54722 -5.53813 3.00869
2 -2.7033 1.37559 -2.65349
1 -1.19989 1.35658 -2.27804
1 -0.739951 -0.0509887 -1.78995
1 0.764939 0.0292948 -1.47353
3 -3.31517 1.16809 -1.8101
3 -3.12272 2.33906 -3.08218
3 -2.90255 0.54554 -3.38138
3 -0.621853 1.54394 -3.20479
3 -0.982937 2.06943 -1.53829
3 -1.35697 -0.472937 -0.985156
3 -0.84994 -0.775839 -2.52221
3 0.884636 0.680637 -0.571085
3 1.39257 0.546363 -2.30088
1 1.53134 -1.29782 -1.283
3 1.39361 -1.78225 -2.24722
3 1.19963 -1.86069 -0.485383
2 2.99246 -1.06619 -0.896283
3 3.34139 -2.02982 -0.537413
3 3.5634 -0.736373 -1.68978
3 3.14133 -0.495079 0.0377222
2 -2.71816 1.03803 1.35009
1 -1.20585 1.27225 1.72689
1 -0.448802 0.0341724 2.2814
1 1.012 0.182368 2.63809
3 -3.4065 0.686607 2.09818
3 -3.04936 1.90793 0.777802
3 -2.67783 0.114216 0.781261
3 -0.630401 1.73751 0.972244
3 -1.28495 2.04006 2.47099
3 -0.97744 -0.208603 3.16359
3 -0.519985 -0.808854 1.57777
3 1.10223 0.906116 3.43114
3 1.54635 0.641742 1.75397
1 1.67147 -1.1654 2.96871
3 1.43391 -1.94722 2.24545
3 1.23596 -1.55797 3.9079
2 3.16321 -1.00682 3.11171
3 3.61199 -1.87281 3.48662
3 3.59459 -0.723657 2.21541
3 3.38407 -0.248032 3.87989
2 -2.26471 6.39751 -2.54895
1 -0.855406 6.39782 -1.9616
1 -0.36089 4.9456 -1.75693
1 1.085 4.8316 -1.46345
3 -2.90845 6.00202 -1.74891
3 -2.63366 7.41368 -2.7845
3 -2.32435 5.83223 -3.48699
3 -0.198356 6.90515 -2.67356
3 -0.736045 7.09532 -1.10974
3 -1.04693 4.5308 -0.95403
3 -0.486511 4.28662 -2.60749
3 1.23479 5.25634 -0.444382
3 1.74709 5.29837 -2.27361
1 1.52149 3.31547 -1.44607
3 1.3163 2.82441 -2.40714
3 0.974597 2.88814 -0.667869
2 3.00763 3.12151 -1.22493
3 3.32201 2.13091 -1.05673
3 3.62431 3.57103 -1.99503
3 3.31086 3.61229 -0.29673
2 -2.6699 6.39539 1.4352
1 -1.1782 6.38458 1.8904
1 -0.557975 5.00404 2.13113
1 0.909389 5.02708 2.56696
3 -3.42661 5.89475 2.08327
3 -3.10445 7.41479 1.32165
3 -2.81205 5.7785 0.46257
3 -0.628556 6.89855 1.05102
3 -0.961103 6.97422 2.78338
3 -1.15611 4.4762 2.86203
3 -0.713998 4.40069 1.25483
3 1.14536 5.69701 3.41515
3 1.59127 5.47414 1.84707
1 1.42893 3.58368 2.69345
3 1.32179 3.07836 1.76165
3 0.862524 3.02906 3.50508
2 2.88935 3.537 2.9155
3 3.14906 2.49862 2.83496
3 3.46076 4.17511 2.19285
3 3.13158 3.83758 3.92743
2 4.23935 -3.44658 -3.46013
1 5.8259 -3.43409 -3.2043
1 6.32059 -4.82124 -2.74279
1 7.83597 -4.99801 -2.5128
3 3.70711 -3.76208 -2.59931
3 3.91659 -2.48568 -3.82072
3 4.0108 -4.19795 -4.22245
3 6.41897 -3.04688 -4.05556
3 6.01555 -2.69154 -2.3565
3 5.74343 -5.09869 -1.8437
3 6.05276 -5.53954 -3.44888
3 8.04333 -4.51434 -1.59554
3 8.40496 -4.47859 -3.31504
1 8.29895 -6.49232 -2.22571
3 8.05992 -7.1366 -3.12264
3 7.72128 -6.77217 -1.42647
2 9.76623 -6.591 -1.88918
3 10.085 -7.46052 -1.41007
3 10.3571 -6.48942 -2.82292
3 10.0577 -5.84919 -1.18631
2 5.61252 -3.47213 1.14352
1 6.87231 -4.23531 1.54597
1 6.82627 -5.66639 1.21377
1 8.0017 -6.40241 1.75751
3 4.7403 -3.93761 1.44377
3 5.73141 -2.4168 1.50852
3 5.55261 -3.12917 0.100224
3 7.68314 -3.71582 1.01913
3 6.98344 -4.04337 2.63902
3 5.98048 -6.15382 1.68533
3 6.64719 -5.7437 0.145465
3 8.11821 -5.99872 2.80967
3 8.88399 -6.02834 1.24566
1 7.92537 -7.89621 1.4701
3 8.10836 -8.12616 0.39835
3 6.94761 -8.37063 1.68146
2 8.92663 -8.76336 2.23516
3 9.36546 8.61687 1.62989
3 9.80466 -8.29154 2.57326
3 8.50908 9.01731 3.14239
2 5.60828 1.06604 -3.4946
1 6.93809 1.03705 -2.77687
1 7.30188 -0.331038 -2.2181
1 8.66182 -0.343768 -1.5179
3 4.6835 1.09551 -2.93126
3 5.47795 1.97353 -4.10922
3 5.59693 0.135745 -4.09535
3 7.63274 1.34431 -3.51087
3 6.93079 1.67527 -1.98922
3 6.48453 -0.692574 -1.54487
3 7.48425 -0.928059 -3.09192
3 8.72146 0.33647 -0.77133
3 9.33075 0.000298381 -2.31867
1 9.0564 -1.73619 -0.983672
3 8.98009 -2.43925 -1.73309
3 8.34039 -1.96749 -0.174775
2 10.4185 -1.96752 -0.267567
3 10.5735 -2.87287 0.273485
3 11.1386 -1.85692 -1.08648
3 10.5049 -1.16085 0.370443
2 5.33444 1.41835 0.560848
1 6.65669 1.57362 1.40188
1 6.99816 0.254848 2.10073
1 8.52022 0.2189 2.54816
3 4.48487 1.68466 1.16527
3 5.49121 2.15702 -0.200564
3 5.21216 0.468286 0.121996
3 7.40246 1.90363 0.680727
3 6.66674 2.37132 2.20343
3 6.22951 0.0567577 2.90973
3 6.87433 -0.583738 1.47849
3 8.80263 0.993105 3.21937
3 9.1384 0.457586 1.68411
1 9.01824 -1.14731 3.07314
3 8.8639 -1.82852 2.25928
3 8.38409 -1.51106 3.88884
2 10.444 -0.959174 3.54726
3 10.7069 -1.94154 3.91413
3 11.0564 -0.625746 2.71053
3 10.4539 -0.270176 4.34831
2 4.29811 6.60167 -2.18627
1 5.82627 6.54471 -2.15195
1 6.4587 5.16789 -1.70778
1 8.03423 5.26369 -1.75733
3 3.87202 6.59434 -1.19087
3 4.00593 7.52796 -2.54645
3 3.83103 5.8928 -2.74698
3 6.23683 6.75692 -3.17498
3 6.09231 7.33363 -1.49306
3 6.20911 4.79511 -0.70533
3 6.1723 4.38726 -2.34617
3 8.38865 6.08623 -1.13655
3 8.4633 5.45216 -2.77637
1 8.65706 3.93841 -1.11349
3 8.34744 3.09762 -1.80807
3 8.15184 3.76902 -0.234245
2 10.2248 3.92066 -0.919863
3 10.6568 2.99798 -0.549949
3 10.7508 4.22007 -1.85806
3 10.5065 4.73403 -0.308443
2 5.16746 6.78675 1.62453
1 6.65666 6.68739 1.65509
1 7.17779 5.39582 2.22085
1 8.69301 5.3187 2.32482
3 4.87404 7.213 2.58095
3 4.94961 7.6435 0.932103
3 4.62905 5.89194 1.24941
3 7.01846 6.92611 0.701165
3 6.98915 7.56472 2.3271
3 6.75199 5.40371 3.20678
3 6.78683 4.50858 1.75496
3 9.06924 6.15425 2.86306
3 9.16401 5.50272 1.34573
1 9.1999 3.9175 2.76581
3 9.05797 3.09729 2.08764
3 8.82022 3.60572 3.72979
2 10.7987 3.85844 2.85286
3 11.1703 2.87278 3.11201
3 11.1207 4.09027 1.87623
3 11.1489 4.50177 3.63976
360
Atoms. Timestep: 3000
2 -10.2873 -3.1927 -1.89471
1 -8.7766 -3.27609 -1.69324
1 -8.11629 -4.66266 -1.42255
1 -6.60085 -4.58853 -1.08377
3 -10.8311 -4.03789 -1.47469