pMPC

143 atoms
142 bonds
220 angles
101 dihedrals

8 atom types
7 bond types
11 angle types
3 dihedral types

0.0   0.0000 xlo xhi
0.0   0.0000 ylo yhi
0.0   0.0000 zlo zhi

Masses

1 1.0
2 1.0
3 1.0
4 1.0
5 1.0
6 1.0
7 1.0
8 1.0

Atoms

1      1      2      0.000    0.000  -16.800    0.000
2      1      1      0.000    7.779  -29.048   12.123
3      1      7      0.000   -1.000    0.000    0.000
4      1      7      0.000    0.700   -4.200    0.700
5      1      7      0.000    0.700   -5.600   -0.700
6      1      7      0.000   -0.700   -5.600   -0.700
7      1      6      0.000    7.979  -29.839   11.395
8      1      7      0.000   -0.700  -14.000   -0.700
9      1      7      0.000   -0.700   -4.200    0.700
10     1      7      0.000    0.700  -21.000    0.700
11     1      6      0.000   -3.432  -13.346   -4.640
12     1      3      0.000    4.244  -27.133    2.733
13     1      7      0.000   -1.000  -28.000    0.000
14     1      2      0.000    0.000   -5.600    0.000
15     1      2      0.000    0.000  -19.600    0.000
16     1      2      0.000    0.000   -4.200    0.000
17     1      6      0.000   -4.402  -14.900  -11.567
18     1      7      0.000   -0.700   -1.400    0.700
19     1      1      0.000    5.356  -29.398   11.756
20     1      6      0.000   -5.333  -15.870  -12.743
21     1      6      0.000   -7.979  -15.839  -11.395
22     1      6      0.000   -5.197  -12.838  -12.554
23     1      1      0.000    5.581  -27.192    4.757
24     1      1      0.000   -5.356  -15.398  -11.756
25     1      6      0.000   -4.520  -13.576   -9.816
26     1      7      0.000    0.700  -22.400   -0.700
27     1      1      0.000   -5.581  -13.192   -4.757
28     1      2      0.000    0.000   -1.400    0.000
29     1      6      0.000    5.197  -26.838   12.554
30     1      3      0.000   -4.244  -13.133   -2.733
31     1      2      0.000    0.000  -23.800    0.000
32     1      1      0.000   -7.779  -15.048  -12.123
33     1      7      0.000    0.700   -1.400    0.700
34     1      6      0.000    6.182  -27.709   13.761
35     1      6      0.000    8.580  -28.303   12.115
36     1      3      0.000   -5.709  -12.606   -6.041
37     1      1      0.000   -4.244  -12.810   -4.136
38     1      2      0.000    0.000    0.000    0.000
39     1      6      0.000   -7.674  -15.475  -13.126
40     1      6      0.000   -5.265  -12.111  -10.445
41     1      3      0.000    5.709  -26.606    6.041
42     1      6      0.000   -6.182  -13.709  -13.761
43     1      5      0.000   -5.529  -13.583   -7.313
44     1      6      0.000   -7.534  -13.148  -10.330
45     1      2      0.000    0.000   -2.800    0.000
46     1      6      0.000   -6.962  -12.504  -12.682
47     1      6      0.000   -6.403  -12.821   -4.136
48     1      7      0.000    0.700  -11.200   -0.700
49     1      7      0.000    0.700   -9.800    0.700
50     1      6      0.000   -8.580  -14.303  -12.115
51     1      3      0.000   -4.127  -14.121   -7.368
52     1      7      0.000   -0.700   -9.800    0.700
53     1      6      0.000    6.403  -26.821    4.136
54     1      6      0.000   -5.689  -14.282   -4.797
55     1      7      0.000   -0.700  -25.200   -0.700
56     1      1      0.000    3.105  -26.754    2.097
57     1      6      0.000    5.333  -29.870   12.743
58     1      3      0.000    2.142  -26.224    2.630
59     1      2      0.000    0.000  -12.600    0.000
60     1      1      0.000    4.244  -26.810    4.136
61     1      2      0.000    0.000  -14.000    0.000
62     1      7      0.000    0.700  -25.200   -0.700
63     1      6      0.000    4.077  -25.733    4.263
64     1      6      0.000    3.432  -27.346    4.640
65     1      6      0.000    4.402  -28.900   11.567
66     1      7      0.000    0.000    1.000    0.000
67     1      6      0.000    5.689  -28.282    4.797
68     1      3      0.000    6.719  -28.498    7.431
69     1      6      0.000   -6.865  -14.651   -9.690
70     1      5      0.000    5.529  -27.583    7.313
71     1      6      0.000   -5.107  -13.854   -0.612
72     1      7      0.000   -0.700  -15.400    0.700
73     1      1      0.000   -5.438  -12.983   -9.808
74     1      2      0.000    0.000  -21.000    0.000
75     1      3      0.000    5.675  -26.485    8.504
76     1      6      0.000   -1.666  -11.577   -0.173
77     1      3      0.000    4.127  -28.121    7.368
78     1      7      0.000    1.000  -28.000    0.000
79     1      2      0.000    0.000  -15.400    0.000
80     1      1      0.000   -1.847  -12.634    0.063
81     1      7      0.000   -0.700  -16.800   -0.700
82     1      4      0.000    6.470  -28.358   11.754
83     1      1      0.000   -6.181  -13.266  -12.760
84     1      6      0.000    6.865  -28.651    9.690
85     1      1      0.000   -3.105  -12.754   -2.097
86     1      7      0.000   -0.700  -19.600   -0.700
87     1      3      0.000   -6.719  -14.498   -7.431
88     1      4      0.000   -6.470  -14.358  -11.754
89     1      3      0.000   -2.142  -12.224   -2.630
90     1      6      0.000    7.674  -29.475   13.126
91     1      7      0.000    0.700  -19.600   -0.700
92     1      1      0.000    6.181  -27.266   12.760
93     1      2      0.000    0.000  -11.200    0.000
94     1      1      0.000    5.438  -26.983    9.808
95     1      2      0.000    0.000   -8.400    0.000
96     1      7      0.000    0.700  -18.200    0.700
97     1      1      0.000    3.139  -27.040    0.618
98     1      7      0.000    0.700   -2.800   -0.700
99     1      6      0.000    5.570  -30.143   10.984
100    1      7      0.000   -0.700   -8.400   -0.700
101    1      2      0.000    0.000  -22.400    0.000
102    1      1      0.000   -6.642  -13.786  -10.315
103    1      2      0.000    0.000   -9.800    0.000
104    1      7      0.000    0.000  -29.000    0.000
105    1      6      0.000    1.666  -25.577    0.173
106    1      8      0.000   -4.221  -13.593   -0.039
107    1      2      0.000    0.000  -28.000    0.000
108    1      7      0.000    0.700  -15.400    0.700
109    1      7      0.000    0.700   -8.400   -0.700
110    1      2      0.000    0.000   -7.000    0.000
111    1      6      0.000    5.265  -26.111   10.445
112    1      6      0.000    6.962  -26.504   12.682
113    1      2      0.000    0.000  -18.200    0.000
114    1      6      0.000   -5.570  -16.143  -10.984
115    1      7      0.000    0.700   -7.000    0.700
116    1      7      0.000   -0.700   -7.000    0.700
117    1      7      0.000    0.700  -16.800   -0.700
118    1      7      0.000   -0.700  -18.200    0.700
119    1      7      0.000   -0.700  -21.000    0.700
120    1      6      0.000    4.520  -27.576    9.816
121    1      7      0.000    1.000  -12.600    0.000
122    1      7      0.000   -0.700  -22.400   -0.700
123    1      3      0.000   -5.675  -12.485   -8.504
124    1      1      0.000   -3.139  -13.040   -0.618
125    1      7      0.000   -0.700  -23.800    0.700
126    1      7      0.000    0.700  -23.800    0.700
127    1      2      0.000    0.000  -25.200    0.000
128    1      6      0.000   -4.275  -13.816    1.020
129    1      6      0.000   -4.077  -11.733   -4.263
130    1      2      0.000    0.000  -26.600    0.000
131    1      7      0.000    1.000    0.000    0.000
132    1      1      0.000    6.642  -27.786   10.315
133    1      7      0.000   -1.000  -26.600    0.000
134    1      1      0.000    1.847  -26.634   -0.063
135    1      7      0.000   -0.700  -11.200   -0.700
136    1      6      0.000   -1.037  -13.200   -0.416
137    1      7      0.000   -0.700   -2.800   -0.700
138    1      6      0.000    1.037  -27.200    0.416
139    1      8      0.000    4.221  -27.593    0.039
140    1      7      0.000    0.700  -14.000   -0.700
141    1      6      0.000    4.275  -27.816   -1.020
142    1      6      0.000    5.107  -27.854    0.612
143    1      6      0.000    7.534  -27.148   10.330

Bonds

1 78 71
2 14 90
3 60 78
4 102 51
5 30 125
6 58 79
7 106 12
8 59 62
9 93 74
10 13 4
11 42 50
12 13 109
13 81 1
14 84 29
15 81 18
16 91 33
17 126 129
18 82 41
19 101 68
20 15 8
21 37 2
22 138 140
23 14 112
24 102 48
25 37 130
26 129 132
27 22 66
28 87 101
29 59 11
30 93 110
31 30 100
32 72 101
33 26 46
34 18 64
35 22 59
36 87 82
37 109 115
38 1 89
39 30 124
40 42 35
41 112 117
42 106 129
43 72 39
44 55 96
45 79 123
46 91 111
47 14 85
48 31 38
49 26 36
50 30 126
51 123 105
52 23 16
53 1 6
54 105 70
55 22 40
56 93 131
57 87 23
58 0 116
59 0 80
60 94 108
61 81 131
62 78 107
63 37 65
64 138 141
65 126 54
66 106 77
67 112 95
68 27 37
69 18 98
70 36 29
71 94 109
72 133 137
73 27 32
74 23 19
75 92 102
76 14 73
77 87 31
78 44 136
79 60 7
80 105 127
81 42 122
82 44 97
83 79 75
84 60 139
85 13 5
86 69 40
87 59 63
88 82 45
89 84 123
90 42 86
91 27 44
92 133 104
93 55 11
94 23 113
95 13 15
96 27 17
97 91 28
98 131 83
99 58 92
100 31 49
101 36 10
102 92 47
103 26 35
104 109 114
105 96 133
106 55 57
107 31 20
108 101 43
109 82 21
110 79 135
111 131 142
112 69 67
113 126 61
114 81 91
115 15 3
116 106 103
117 96 138
118 100 121
119 22 52
120 58 120
121 58 60
122 36 128
123 18 56
124 0 78
125 94 102
126 73 118
127 15 44
128 72 122
129 92 134
130 100 25
131 129 133
132 94 99
133 84 88
134 69 76
135 73 9
136 93 119
137 0 112
138 26 53
139 1 34
140 69 74
141 73 100
142 72 24

Angles

1 118 73 9
2 125 30 100
3 13 15 44
4 15 13 109
5 16 23 113
6 43 101 72
7 14 73 100
8 40 69 67
9 46 26 53
10 118 73 100
11 79 123 84
12 68 101 43
13 29 84 88
14 101 72 122
15 102 94 109
16 24 72 101
17 44 27 37
18 47 92 134
19 2 37 65
20 98 18 56
21 120 58 60
22 107 78 71
23 5 13 15
24 95 112 0
25 106 129 126
26 54 126 129
27 66 22 52
28 51 102 92
29 89 1 6
30 23 87 31
31 140 138 96
32 9 73 14
33 122 42 86
34 12 106 77
35 72 122 42
36 117 112 14
37 130 37 27
38 71 78 60
39 82 87 31
40 116 0 80
41 125 30 126
42 17 27 37
43 50 42 122
44 120 58 92
45 123 84 29
46 90 14 85
47 82 87 23
48 26 36 29
49 47 92 58
50 50 42 35
51 136 44 27
52 54 126 30
53 4 13 5
54 101 87 31
55 30 126 129
56 35 42 86
57 101 87 82
58 7 60 139
59 90 14 112
60 67 69 74
61 95 112 14
62 39 72 24
63 110 93 119
64 121 100 73
65 123 84 88
66 96 55 57
67 70 105 123
68 65 37 27
69 6 1 34
70 75 79 123
71 63 59 22
72 105 123 84
73 83 131 93
74 138 96 55
75 100 30 126
76 115 109 13
77 12 106 129
78 66 22 59
79 8 15 13
80 134 92 58
81 68 101 72
82 2 37 130
83 61 126 54
84 116 0 78
85 16 23 19
86 114 109 94
87 142 131 93
88 62 59 63
89 118 73 14
90 7 60 78
91 73 14 112
92 4 13 109
93 59 22 40
94 17 27 44
95 22 40 69
96 9 73 100
97 135 79 123
98 80 0 78
99 89 1 34
100 103 106 77
101 64 18 98
102 3 15 13
103 71 78 0
104 97 44 27
105 25 100 121
106 139 60 78
107 32 27 37
108 46 26 36
109 48 102 94
110 18 81 131
111 18 81 91
112 25 100 73
113 51 102 94
114 32 27 17
115 99 94 108
116 103 106 129
117 77 106 129
118 35 42 122
119 107 78 60
120 0 78 60
121 124 30 126
122 10 36 26
123 67 69 76
124 141 138 96
125 85 14 73
126 61 126 30
127 10 36 128
128 38 31 20
129 124 30 100
130 1 81 91
131 4 13 15
132 58 60 78
133 137 133 96
134 30 100 73
135 96 55 11
136 41 82 45
137 136 44 97
138 33 91 28
139 55 96 133
140 11 55 57
141 111 91 28
142 134 92 102
143 136 44 15
144 3 15 8
145 121 100 30
146 139 60 58
147 128 36 26
148 117 112 95
149 132 129 126
150 47 92 102
151 65 37 130
152 7 60 58
153 85 14 112
154 59 11 55
155 137 133 104
156 93 74 69
157 26 35 42
158 64 18 56
159 8 15 44
160 131 81 91
161 50 42 86
162 75 79 135
163 83 131 142
164 105 123 79
165 110 93 131
166 2 37 27
167 116 0 112
168 132 129 106
169 52 22 59
170 1 81 18
171 108 94 109
172 94 109 13
173 58 92 102
174 32 27 44
175 40 69 76
176 76 69 74
177 84 29 36
178 3 15 44
179 107 78 0
180 138 96 133
181 99 94 109
182 38 31 49
183 0 112 14
184 40 69 74
185 5 13 109
186 124 30 125
187 115 109 94
188 117 112 0
189 49 31 20
190 33 91 111
191 101 87 23
192 90 14 73
193 127 105 123
194 41 82 21
195 39 72 101
196 61 126 129
197 45 82 21
198 27 44 15
199 114 109 13
200 48 102 92
201 53 26 36
202 22 59 11
203 115 109 114
204 51 102 48
205 19 23 113
206 78 0 112
207 97 44 15
208 36 26 35
209 108 94 102
210 104 133 96
211 94 102 92
212 99 94 102
213 131 93 74
214 62 59 22
215 119 93 131
216 1 81 131
217 12 106 103
218 25 100 30
219 80 0 112
220 92 58 60

Dihedrals

1 103 106 129 126
2 117 112 14 73
3 120 58 60 78
4 120 58 92 102
5 127 105 123 79
6 14 73 100 30
7 116 0 78 60
8 44 15 13 109
9 97 44 27 37
10 8 15 44 27
11 71 78 0 112
12 136 44 27 37
13 25 100 30 126
14 115 109 13 15
15 134 92 102 94
16 37 27 44 15
17 121 100 73 14
18 118 73 100 30
19 109 94 102 92
20 141 138 96 55
21 95 112 0 78
22 9 73 14 112
23 73 14 112 0
24 17 27 44 15
25 140 138 96 133
26 15 13 109 94
27 125 30 126 129
28 61 126 30 100
29 85 14 112 0
30 51 102 92 58
31 3 15 44 27
32 100 73 14 112
33 47 92 102 94
34 117 112 0 78
35 51 102 94 109
36 7 60 58 92
37 13 15 44 27
38 90 14 112 0
39 54 126 30 100
40 118 73 14 112
41 121 100 30 126
42 25 100 73 14
43 108 94 109 13
44 124 30 126 129
45 125 30 100 73
46 8 15 13 109
47 141 138 96 133
48 97 44 15 13
49 60 78 0 112
50 48 102 92 58
51 127 105 123 84
52 134 92 58 60
53 78 60 58 92
54 108 94 102 92
55 5 13 15 44
56 4 13 15 44
57 126 30 100 73
58 4 13 109 94
59 130 37 27 44
60 12 106 129 126
61 70 105 123 84
62 99 94 109 13
63 0 78 60 58
64 139 60 58 92
65 9 73 100 30
66 129 126 30 100
67 61 126 129 106
68 106 129 126 30
69 99 94 102 92
70 70 105 123 79
71 107 78 60 58
72 5 13 109 94
73 115 109 94 102
74 58 92 102 94
75 71 78 60 58
76 77 106 129 126
77 54 126 129 106
78 85 14 73 100
79 102 94 109 13
80 136 44 15 13
81 102 92 58 60
82 124 30 100 73
83 80 0 78 60
84 114 109 94 102
85 95 112 14 73
86 7 60 78 0
87 65 37 27 44
88 107 78 0 112
89 140 138 96 55
90 32 27 44 15
91 132 129 126 30
92 48 102 94 109
93 139 60 78 0
94 14 112 0 78
95 47 92 58 60
96 3 15 13 109
97 80 0 112 14
98 114 109 13 15
99 90 14 73 100
100 116 0 112 14
101 2 37 27 44
