<?xml version ="1.0" encoding ="UTF-8" ?>
<hoomd_xml version="1.4">
<!-- generated by VMD on: Thu Dec 11 15:54:24 2014
 HOOMD-blue XML File plugin v0.10 by Axel Kohlmeyer -->
<configuration time_step="0" natoms="648">
<type num="648">
OW
HW
HW
OW
HW
HW
OW
HW
HW
OW
HW
HW
OW
HW
HW
OW
HW
HW
OW
HW
HW
OW
HW
HW
OW
HW
HW
OW
HW
HW
OW
HW
HW
OW
HW
HW
OW
HW
HW
OW
HW
HW
OW
HW
HW
OW
HW
HW
OW
HW
HW
OW
HW
HW
OW
HW
HW
OW
HW
HW
OW
HW
HW
OW
HW
HW
OW
HW
HW
OW
HW
HW
OW
HW
HW
OW
HW
HW
OW
HW
HW
OW
HW
HW
OW
HW
HW
OW
HW
HW
OW
HW
HW
OW
HW
HW
OW
HW
HW
OW
HW
HW
OW
HW
HW
OW
HW
HW
OW
HW
HW
OW
HW
HW
OW
HW
HW
OW
HW
HW
OW
HW
HW
OW
HW
HW
OW
HW
HW
OW
HW
HW
OW
HW
HW
OW
HW
HW
OW
HW
HW
OW
HW
HW
OW
HW
HW
OW
HW
HW
OW
HW
HW
OW
HW
HW
OW
HW
HW
OW
HW
HW
OW
HW
HW
OW
HW
HW
OW
HW
HW
OW
HW
HW
OW
HW
HW
OW
HW
HW
OW
HW
HW
OW
HW
HW
OW
HW
HW
OW
HW
HW
OW
HW
HW
OW
HW
HW
OW
HW
HW
OW
HW
HW
OW
HW
HW
OW
HW
HW
OW
HW
HW
OW
HW
HW
OW
HW
HW
OW
HW
HW
OW
HW
HW
OW
HW
HW
OW
HW
HW
OW
HW
HW
OW
HW
HW
OW
HW
HW
OW
HW
HW
OW
HW
HW
OW
HW
HW
OW
HW
HW
OW
HW
HW
OW
HW
HW
OW
HW
HW
OW
HW
HW
OW
HW
HW
OW
HW
HW
OW
HW
HW
OW
HW
HW
OW
HW
HW
OW
HW
HW
OW
HW
HW
OW
HW
HW
OW
HW
HW
OW
HW
HW
OW
HW
HW
OW
HW
HW
OW
HW
HW
OW
HW
HW
OW
HW
HW
OW
HW
HW
OW
HW
HW
OW
HW
HW
OW
HW
HW
OW
HW
HW
OW
HW
HW
OW
HW
HW
OW
HW
HW
OW
HW
HW
OW
HW
HW
OW
HW
HW
OW
HW
HW
OW
HW
HW
OW
HW
HW
OW
HW
HW
OW
HW
HW
OW
HW
HW
OW
HW
HW
OW
HW
HW
OW
HW
HW
OW
HW
HW
OW
HW
HW
OW
HW
HW
OW
HW
HW
OW
HW
HW
OW
HW
HW
OW
HW
HW
OW
HW
HW
OW
HW
HW
OW
HW
HW
OW
HW
HW
OW
HW
HW
OW
HW
HW
OW
HW
HW
OW
HW
HW
OW
HW
HW
OW
HW
HW
OW
HW
HW
OW
HW
HW
OW
HW
HW
OW
HW
HW
OW
HW
HW
OW
HW
HW
OW
HW
HW
OW
HW
HW
OW
HW
HW
OW
HW
HW
OW
HW
HW
OW
HW
HW
OW
HW
HW
OW
HW
HW
OW
HW
HW
OW
HW
HW
OW
HW
HW
OW
HW
HW
OW
HW
HW
OW
HW
HW
OW
HW
HW
OW
HW
HW
OW
HW
HW
OW
HW
HW
OW
HW
HW
OW
HW
HW
OW
HW
HW
OW
HW
HW
OW
HW
HW
OW
HW
HW
OW
HW
HW
OW
HW
HW
OW
HW
HW
OW
HW
HW
OW
HW
HW
OW
HW
HW
OW
HW
HW
OW
HW
HW
OW
HW
HW
OW
HW
HW
OW
HW
HW
OW
HW
HW
OW
HW
HW
OW
HW
HW
OW
HW
HW
OW
HW
HW
OW
HW
HW
OW
HW
HW
OW
HW
HW
OW
HW
HW
OW
HW
HW
OW
HW
HW
OW
HW
HW
OW
HW
HW
OW
HW
HW
OW
HW
HW
OW
HW
HW
OW
HW
HW
OW
HW
HW
OW
HW
HW
OW
HW
HW
OW
HW
HW
OW
HW
HW
OW
HW
HW
OW
HW
HW
OW
HW
HW
OW
HW
HW
OW
HW
HW
OW
HW
HW
OW
HW
HW
OW
HW
HW
OW
HW
HW
OW
HW
HW
OW
HW
HW
OW
HW
HW
OW
HW
HW
</type>
<charge num="648">
-0.82
0.41
0.41
-0.82
0.41
0.41
-0.82
0.41
0.41
-0.82
0.41
0.41
-0.82
0.41
0.41
-0.82
0.41
0.41
-0.82
0.41
0.41
-0.82
0.41
0.41
-0.82
0.41
0.41
-0.82
0.41
0.41
-0.82
0.41
0.41
-0.82
0.41
0.41
-0.82
0.41
0.41
-0.82
0.41
0.41
-0.82
0.41
0.41
-0.82
0.41
0.41
-0.82
0.41
0.41
-0.82
0.41
0.41
-0.82
0.41
0.41
-0.82
0.41
0.41
-0.82
0.41
0.41
-0.82
0.41
0.41
-0.82
0.41
0.41
-0.82
0.41
0.41
-0.82
0.41
0.41
-0.82
0.41
0.41
-0.82
0.41
0.41
-0.82
0.41
0.41
-0.82
0.41
0.41
-0.82
0.41
0.41
-0.82
0.41
0.41
-0.82
0.41
0.41
-0.82
0.41
0.41
-0.82
0.41
0.41
-0.82
0.41
0.41
-0.82
0.41
0.41
-0.82
0.41
0.41
-0.82
0.41
0.41
-0.82
0.41
0.41
-0.82
0.41
0.41
-0.82
0.41
0.41
-0.82
0.41
0.41
-0.82
0.41
0.41
-0.82
0.41
0.41
-0.82
0.41
0.41
-0.82
0.41
0.41
-0.82
0.41
0.41
-0.82
0.41
0.41
-0.82
0.41
0.41
-0.82
0.41
0.41
-0.82
0.41
0.41
-0.82
0.41
0.41
-0.82
0.41
0.41
-0.82
0.41
0.41
-0.82
0.41
0.41
-0.82
0.41
0.41
-0.82
0.41
0.41
-0.82
0.41
0.41
-0.82
0.41
0.41
-0.82
0.41
0.41
-0.82
0.41
0.41
-0.82
0.41
0.41
-0.82
0.41
0.41
-0.82
0.41
0.41
-0.82
0.41
0.41
-0.82
0.41
0.41
-0.82
0.41
0.41
-0.82
0.41
0.41
-0.82
0.41
0.41
-0.82
0.41
0.41
-0.82
0.41
0.41
-0.82
0.41
0.41
-0.82
0.41
0.41
-0.82
0.41
0.41
-0.82
0.41
0.41
-0.82
0.41
0.41
-0.82
0.41
0.41
-0.82
0.41
0.41
-0.82
0.41
0.41
-0.82
0.41
0.41
-0.82
0.41
0.41
-0.82
0.41
0.41
-0.82
0.41
0.41
-0.82
0.41
0.41
-0.82
0.41
0.41
-0.82
0.41
0.41
-0.82
0.41
0.41
-0.82
0.41
0.41
-0.82
0.41
0.41
-0.82
0.41
0.41
-0.82
0.41
0.41
-0.82
0.41
0.41
-0.82
0.41
0.41
-0.82
0.41
0.41
-0.82
0.41
0.41
-0.82
0.41
0.41
-0.82
0.41
0.41
-0.82
0.41
0.41
-0.82
0.41
0.41
-0.82
0.41
0.41
-0.82
0.41
0.41
-0.82
0.41
0.41
-0.82
0.41
0.41
-0.82
0.41
0.41
-0.82
0.41
0.41
-0.82
0.41
0.41
-0.82
0.41
0.41
-0.82
0.41
0.41
-0.82
0.41
0.41
-0.82
0.41
0.41
-0.82
0.41
0.41
-0.82
0.41
0.41
-0.82
0.41
0.41
-0.82
0.41
0.41
-0.82
0.41
0.41
-0.82
0.41
0.41
-0.82
0.41
0.41
-0.82
0.41
0.41
-0.82
0.41
0.41
-0.82
0.41
0.41
-0.82
0.41
0.41
-0.82
0.41
0.41
-0.82
0.41
0.41
-0.82
0.41
0.41
-0.82
0.41
0.41
-0.82
0.41
0.41
-0.82
0.41
0.41
-0.82
0.41
0.41
-0.82
0.41
0.41
-0.82
0.41
0.41
-0.82
0.41
0.41
-0.82
0.41
0.41
-0.82
0.41
0.41
-0.82
0.41
0.41
-0.82
0.41
0.41
-0.82
0.41
0.41
-0.82
0.41
0.41
-0.82
0.41
0.41
-0.82
0.41
0.41
-0.82
0.41
0.41
-0.82
0.41
0.41
-0.82
0.41
0.41
-0.82
0.41
0.41
-0.82
0.41
0.41
-0.82
0.41
0.41
-0.82
0.41
0.41
-0.82
0.41
0.41
-0.82
0.41
0.41
-0.82
0.41
0.41
-0.82
0.41
0.41
-0.82
0.41
0.41
-0.82
0.41
0.41
-0.82
0.41
0.41
-0.82
0.41
0.41
-0.82
0.41
0.41
-0.82
0.41
0.41
-0.82
0.41
0.41
-0.82
0.41
0.41
-0.82
0.41
0.41
-0.82
0.41
0.41
-0.82
0.41
0.41
-0.82
0.41
0.41
-0.82
0.41
0.41
-0.82
0.41
0.41
-0.82
0.41
0.41
-0.82
0.41
0.41
-0.82
0.41
0.41
-0.82
0.41
0.41
-0.82
0.41
0.41
-0.82
0.41
0.41
-0.82
0.41
0.41
-0.82
0.41
0.41
-0.82
0.41
0.41
-0.82
0.41
0.41
-0.82
0.41
0.41
-0.82
0.41
0.41
-0.82
0.41
0.41
-0.82
0.41
0.41
-0.82
0.41
0.41
-0.82
0.41
0.41
-0.82
0.41
0.41
-0.82
0.41
0.41
-0.82
0.41
0.41
-0.82
0.41
0.41
-0.82
0.41
0.41
-0.82
0.41
0.41
-0.82
0.41
0.41
-0.82
0.41
0.41
-0.82
0.41
0.41
-0.82
0.41
0.41
-0.82
0.41
0.41
-0.82
0.41
0.41
-0.82
0.41
0.41
-0.82
0.41
0.41
-0.82
0.41
0.41
-0.82
0.41
0.41
-0.82
0.41
0.41
-0.82
0.41
0.41
-0.82
0.41
0.41
-0.82
0.41
0.41
-0.82
0.41
0.41
-0.82
0.41
0.41
-0.82
0.41
0.41
-0.82
0.41
0.41
-0.82
0.41
0.41
-0.82
0.41
0.41
-0.82
0.41
0.41
-0.82
0.41
0.41
-0.82
0.41
0.41
-0.82
0.41
0.41
-0.82
0.41
0.41
-0.82
0.41
0.41
-0.82
0.41
0.41
-0.82
0.41
0.41
-0.82
0.41
0.41
-0.82
0.41
0.41
</charge>
<body num="648">
1
0
0
2
0
0
3
0
0
4
0
0
5
0
0
6
0
0
7
0
0
8
0
0
9
0
0
10
0
0
11
0
0
12
0
0
13
0
0
14
0
0
15
0
0
16
0
0
17
0
0
18
0
0
19
0
0
20
0
0
21
0
0
22
0
0
23
0
0
24
0
0
25
0
0
26
0
0
27
0
0
28
0
0
29
0
0
30
0
0
31
0
0
32
0
0
33
0
0
34
0
0
35
0
0
36
0
0
37
0
0
38
0
0
39
0
0
40
0
0
41
0
0
42
0
0
43
0
0
44
0
0
45
0
0
46
0
0
47
0
0
48
0
0
49
0
0
50
0
0
51
0
0
52
0
0
53
0
0
54
0
0
55
0
0
56
0
0
57
0
0
58
0
0
59
0
0
60
0
0
61
0
0
62
0
0
63
0
0
64
0
0
65
0
0
66
0
0
67
0
0
68
0
0
69
0
0
70
0
0
71
0
0
72
0
0
73
0
0
74
0
0
75
0
0
76
0
0
77
0
0
78
0
0
79
0
0
80
0
0
81
0
0
82
0
0
83
0
0
84
0
0
85
0
0
86
0
0
87
0
0
88
0
0
89
0
0
90
0
0
91
0
0
92
0
0
93
0
0
94
0
0
95
0
0
96
0
0
97
0
0
98
0
0
99
0
0
100
0
0
101
0
0
102
0
0
103
0
0
104
0
0
105
0
0
106
0
0
107
0
0
108
0
0
109
0
0
110
0
0
111
0
0
112
0
0
113
0
0
114
0
0
115
0
0
116
0
0
117
0
0
118
0
0
119
0
0
120
0
0
121
0
0
122
0
0
123
0
0
124
0
0
125
0
0
126
0
0
127
0
0
128
0
0
129
0
0
130
0
0
131
0
0
132
0
0
133
0
0
134
0
0
135
0
0
136
0
0
137
0
0
138
0
0
139
0
0
140
0
0
141
0
0
142
0
0
143
0
0
144
0
0
145
0
0
146
0
0
147
0
0
148
0
0
149
0
0
150
0
0
151
0
0
152
0
0
153
0
0
154
0
0
155
0
0
156
0
0
157
0
0
158
0
0
159
0
0
160
0
0
161
0
0
162
0
0
163
0
0
164
0
0
165
0
0
166
0
0
167
0
0
168
0
0
169
0
0
170
0
0
171
0
0
172
0
0
173
0
0
174
0
0
175
0
0
176
0
0
177
0
0
178
0
0
179
0
0
180
0
0
181
0
0
182
0
0
183
0
0
184
0
0
185
0
0
186
0
0
187
0
0
188
0
0
189
0
0
190
0
0
191
0
0
192
0
0
193
0
0
194
0
0
195
0
0
196
0
0
197
0
0
198
0
0
199
0
0
200
0
0
201
0
0
202
0
0
203
0
0
204
0
0
205
0
0
206
0
0
207
0
0
208
0
0
209
0
0
210
0
0
211
0
0
212
0
0
213
0
0
214
0
0
215
0
0
216
0
0
</body>
<diameter num="648">
3.040000
2.000000
2.000000
3.040000
2.000000
2.000000
3.040000
2.000000
2.000000
3.040000
2.000000
2.000000
3.040000
2.000000
2.000000
3.040000
2.000000
2.000000
3.040000
2.000000
2.000000
3.040000
2.000000
2.000000
3.040000
2.000000
2.000000
3.040000
2.000000
2.000000
3.040000
2.000000
2.000000
3.040000
2.000000
2.000000
3.040000
2.000000
2.000000
3.040000
2.000000
2.000000
3.040000
2.000000
2.000000
3.040000
2.000000
2.000000
3.040000
2.000000
2.000000
3.040000
2.000000
2.000000
3.040000
2.000000
2.000000
3.040000
2.000000
2.000000
3.040000
2.000000
2.000000
3.040000
2.000000
2.000000
3.040000
2.000000
2.000000
3.040000
2.000000
2.000000
3.040000
2.000000
2.000000
3.040000
2.000000
2.000000
3.040000
2.000000
2.000000
3.040000
2.000000
2.000000
3.040000
2.000000
2.000000
3.040000
2.000000
2.000000
3.040000
2.000000
2.000000
3.040000
2.000000
2.000000
3.040000
2.000000
2.000000
3.040000
2.000000
2.000000
3.040000
2.000000
2.000000
3.040000
2.000000
2.000000
3.040000
2.000000
2.000000
3.040000
2.000000
2.000000
3.040000
2.000000
2.000000
3.040000
2.000000
2.000000
3.040000
2.000000
2.000000
3.040000
2.000000
2.000000
3.040000
2.000000
2.000000
3.040000
2.000000
2.000000
3.040000
2.000000
2.000000
3.040000
2.000000
2.000000
3.040000
2.000000
2.000000
3.040000
2.000000
2.000000
3.040000
2.000000
2.000000
3.040000
2.000000
2.000000
3.040000
2.000000
2.000000
3.040000
2.000000
2.000000
3.040000
2.000000
2.000000
3.040000
2.000000
2.000000
3.040000
2.000000
2.000000
3.040000
2.000000
2.000000
3.040000
2.000000
2.000000
3.040000
2.000000
2.000000
3.040000
2.000000
2.000000
3.040000
2.000000
2.000000
3.040000
2.000000
2.000000
3.040000
2.000000
2.000000
3.040000
2.000000
2.000000
3.040000
2.000000
2.000000
3.040000
2.000000
2.000000
3.040000
2.000000
2.000000
3.040000
2.000000
2.000000
3.040000
2.000000
2.000000
3.040000
2.000000
2.000000
3.040000
2.000000
2.000000
3.040000
2.000000
2.000000
3.040000
2.000000
2.000000
3.040000
2.000000
2.000000
3.040000
2.000000
2.000000
3.040000
2.000000
2.000000
3.040000
2.000000
2.000000
3.040000
2.000000
2.000000
3.040000
2.000000
2.000000
3.040000
2.000000
2.000000
3.040000
2.000000
2.000000
3.040000
2.000000
2.000000
3.040000
2.000000
2.000000
3.040000
2.000000
2.000000
3.040000
2.000000
2.000000
3.040000
2.000000
2.000000
3.040000
2.000000
2.000000
3.040000
2.000000
2.000000
3.040000
2.000000
2.000000
3.040000
2.000000
2.000000
3.040000
2.000000
2.000000
3.040000
2.000000
2.000000
3.040000
2.000000
2.000000
3.040000
2.000000
2.000000
3.040000
2.000000
2.000000
3.040000
2.000000
2.000000
3.040000
2.000000
2.000000
3.040000
2.000000
2.000000
3.040000
2.000000
2.000000
3.040000
2.000000
2.000000
3.040000
2.000000
2.000000
3.040000
2.000000
2.000000
3.040000
2.000000
2.000000
3.040000
2.000000
2.000000
3.040000
2.000000
2.000000
3.040000
2.000000
2.000000
3.040000
2.000000
2.000000
3.040000
2.000000
2.000000
3.040000
2.000000
2.000000
3.040000
2.000000
2.000000
3.040000
2.000000
2.000000
3.040000
2.000000
2.000000
3.040000
2.000000
2.000000
3.040000
2.000000
2.000000
3.040000
2.000000
2.000000
3.040000
2.000000
2.000000
3.040000
2.000000
2.000000
3.040000
2.000000
2.000000
3.040000
2.000000
2.000000
3.040000
2.000000
2.000000
3.040000
2.000000
2.000000
3.040000
2.000000
2.000000
3.040000
2.000000
2.000000
3.040000
2.000000
2.000000
3.040000
2.000000
2.000000
3.040000
2.000000
2.000000
3.040000
2.000000
2.000000
3.040000
2.000000
2.000000
3.040000
2.000000
2.000000
3.040000
2.000000
2.000000
3.040000
2.000000
2.000000
3.040000
2.000000
2.000000
3.040000
2.000000
2.000000
3.040000
2.000000
2.000000
3.040000
2.000000
2.000000
3.040000
2.000000
2.000000
3.040000
2.000000
2.000000
3.040000
2.000000
2.000000
3.040000
2.000000
2.000000
3.040000
2.000000
2.000000
3.040000
2.000000
2.000000
3.040000
2.000000
2.000000
3.040000
2.000000
2.000000
3.040000
2.000000
2.000000
3.040000
2.000000
2.000000
3.040000
2.000000
2.000000
3.040000
2.000000
2.000000
3.040000
2.000000
2.000000
3.040000
2.000000
2.000000
3.040000
2.000000
2.000000
3.040000
2.000000
2.000000
3.040000
2.000000
2.000000
3.040000
2.000000
2.000000
3.040000
2.000000
2.000000
3.040000
2.000000
2.000000
3.040000
2.000000
2.000000
3.040000
2.000000
2.000000
3.040000
2.000000
2.000000
3.040000
2.000000
2.000000
3.040000
2.000000
2.000000
3.040000
2.000000
2.000000
3.040000
2.000000
2.000000
3.040000
2.000000
2.000000
3.040000
2.000000
2.000000
3.040000
2.000000
2.000000
3.040000
2.000000
2.000000
3.040000
2.000000
2.000000
3.040000
2.000000
2.000000
3.040000
2.000000
2.000000
3.040000
2.000000
2.000000
3.040000
2.000000
2.000000
3.040000
2.000000
2.000000
3.040000
2.000000
2.000000
3.040000
2.000000
2.000000
3.040000
2.000000
2.000000
3.040000
2.000000
2.000000
3.040000
2.000000
2.000000
3.040000
2.000000
2.000000
3.040000
2.000000
2.000000
3.040000
2.000000
2.000000
3.040000
2.000000
2.000000
3.040000
2.000000
2.000000
3.040000
2.000000
2.000000
3.040000
2.000000
2.000000
3.040000
2.000000
2.000000
3.040000
2.000000
2.000000
3.040000
2.000000
2.000000
3.040000
2.000000
2.000000
3.040000
2.000000
2.000000
3.040000
2.000000
2.000000
3.040000
2.000000
2.000000
3.040000
2.000000
2.000000
3.040000
2.000000
2.000000
3.040000
2.000000
2.000000
3.040000
2.000000
2.000000
3.040000
2.000000
2.000000
3.040000
2.000000
2.000000
3.040000
2.000000
2.000000
3.040000
2.000000
2.000000
3.040000
2.000000
2.000000
3.040000
2.000000
2.000000
3.040000
2.000000
2.000000
3.040000
2.000000
2.000000
3.040000
2.000000
2.000000
3.040000
2.000000
2.000000
3.040000
2.000000
2.000000
3.040000
2.000000
2.000000
3.040000
2.000000
2.000000
3.040000
2.000000
2.000000
3.040000
2.000000
2.000000
3.040000
2.000000
2.000000
3.040000
2.000000
2.000000
3.040000
2.000000
2.000000
3.040000
2.000000
2.000000
3.040000
2.000000
2.000000
3.040000
2.000000
2.000000
3.040000
2.000000
2.000000
</diameter>
<mass num="648">
15.999400
1.007940
1.007940
15.999400
1.007940
1.007940
15.999400
1.007940
1.007940
15.999400
1.007940
1.007940
15.999400
1.007940
1.007940
15.999400
1.007940
1.007940
15.999400
1.007940
1.007940
15.999400
1.007940
1.007940
15.999400
1.007940
1.007940
15.999400
1.007940
1.007940
15.999400
1.007940
1.007940
15.999400
1.007940
1.007940
15.999400
1.007940
1.007940
15.999400
1.007940
1.007940
15.999400
1.007940
1.007940
15.999400
1.007940
1.007940
15.999400
1.007940
1.007940
15.999400
1.007940
1.007940
15.999400
1.007940
1.007940
15.999400
1.007940
1.007940
15.999400
1.007940
1.007940
15.999400
1.007940
1.007940
15.999400
1.007940
1.007940
15.999400
1.007940
1.007940
15.999400
1.007940
1.007940
15.999400
1.007940
1.007940
15.999400
1.007940
1.007940
15.999400
1.007940
1.007940
15.999400
1.007940
1.007940
15.999400
1.007940
1.007940
15.999400
1.007940
1.007940
15.999400
1.007940
1.007940
15.999400
1.007940
1.007940
15.999400
1.007940
1.007940
15.999400
1.007940
1.007940
15.999400
1.007940
1.007940
15.999400
1.007940
1.007940
15.999400
1.007940
1.007940
15.999400
1.007940
1.007940
15.999400
1.007940
1.007940
15.999400
1.007940
1.007940
15.999400
1.007940
1.007940
15.999400
1.007940
1.007940
15.999400
1.007940
1.007940
15.999400
1.007940
1.007940
15.999400
1.007940
1.007940
15.999400
1.007940
1.007940
15.999400
1.007940
1.007940
15.999400
1.007940
1.007940
15.999400
1.007940
1.007940
15.999400
1.007940
1.007940
15.999400
1.007940
1.007940
15.999400
1.007940
1.007940
15.999400
1.007940
1.007940
15.999400
1.007940
1.007940
15.999400
1.007940
1.007940
15.999400
1.007940
1.007940
15.999400
1.007940
1.007940
15.999400
1.007940
1.007940
15.999400
1.007940
1.007940
15.999400
1.007940
1.007940
15.999400
1.007940
1.007940
15.999400
1.007940
1.007940
15.999400
1.007940
1.007940
15.999400
1.007940
1.007940
15.999400
1.007940
1.007940
15.999400
1.007940
1.007940
15.999400
1.007940
1.007940
15.999400
1.007940
1.007940
15.999400
1.007940
1.007940
15.999400
1.007940
1.007940
15.999400
1.007940
1.007940
15.999400
1.007940
1.007940
15.999400
1.007940
1.007940
15.999400
1.007940
1.007940
15.999400
1.007940
1.007940
15.999400
1.007940
1.007940
15.999400
1.007940
1.007940
15.999400
1.007940
1.007940
15.999400
1.007940
1.007940
15.999400
1.007940
1.007940
15.999400
1.007940
1.007940
15.999400
1.007940
1.007940
15.999400
1.007940
1.007940
15.999400
1.007940
1.007940
15.999400
1.007940
1.007940
15.999400
1.007940
1.007940
15.999400
1.007940
1.007940
15.999400
1.007940
1.007940
15.999400
1.007940
1.007940
15.999400
1.007940
1.007940
15.999400
1.007940
1.007940
15.999400
1.007940
1.007940
15.999400
1.007940
1.007940
15.999400
1.007940
1.007940
15.999400
1.007940
1.007940
15.999400
1.007940
1.007940
15.999400
1.007940
1.007940
15.999400
1.007940
1.007940
15.999400
1.007940
1.007940
15.999400
1.007940
1.007940
15.999400
1.007940
1.007940
15.999400
1.007940
1.007940
15.999400
1.007940
1.007940
15.999400
1.007940
1.007940
15.999400
1.007940
1.007940
15.999400
1.007940
1.007940
15.999400
1.007940
1.007940
15.999400
1.007940
1.007940
15.999400
1.007940
1.007940
15.999400
1.007940
1.007940
15.999400
1.007940
1.007940
15.999400
1.007940
1.007940
15.999400
1.007940
1.007940
15.999400
1.007940
1.007940
15.999400
1.007940
1.007940
15.999400
1.007940
1.007940
15.999400
1.007940
1.007940
15.999400
1.007940
1.007940
15.999400
1.007940
1.007940
15.999400
1.007940
1.007940
15.999400
1.007940
1.007940
15.999400
1.007940
1.007940
15.999400
1.007940
1.007940
15.999400
1.007940
1.007940
15.999400
1.007940
1.007940
15.999400
1.007940
1.007940
15.999400
1.007940
1.007940
15.999400
1.007940
1.007940
15.999400
1.007940
1.007940
15.999400
1.007940
1.007940
15.999400
1.007940
1.007940
15.999400
1.007940
1.007940
15.999400
1.007940
1.007940
15.999400
1.007940
1.007940
15.999400
1.007940
1.007940
15.999400
1.007940
1.007940
15.999400
1.007940
1.007940
15.999400
1.007940
1.007940
15.999400
1.007940
1.007940
15.999400
1.007940
1.007940
15.999400
1.007940
1.007940
15.999400
1.007940
1.007940
15.999400
1.007940
1.007940
15.999400
1.007940
1.007940
15.999400
1.007940
1.007940
15.999400
1.007940
1.007940
15.999400
1.007940
1.007940
15.999400
1.007940
1.007940
15.999400
1.007940
1.007940
15.999400
1.007940
1.007940
15.999400
1.007940
1.007940
15.999400
1.007940
1.007940
15.999400
1.007940
1.007940
15.999400
1.007940
1.007940
15.999400
1.007940
1.007940
15.999400
1.007940
1.007940
15.999400
1.007940
1.007940
15.999400
1.007940
1.007940
15.999400
1.007940
1.007940
15.999400
1.007940
1.007940
15.999400
1.007940
1.007940
15.999400
1.007940
1.007940
15.999400
1.007940
1.007940
15.999400
1.007940
1.007940
15.999400
1.007940
1.007940
15.999400
1.007940
1.007940
15.999400
1.007940
1.007940
15.999400
1.007940
1.007940
15.999400
1.007940
1.007940
15.999400
1.007940
1.007940
15.999400
1.007940
1.007940
15.999400
1.007940
1.007940
15.999400
1.007940
1.007940
15.999400
1.007940
1.007940
15.999400
1.007940
1.007940
15.999400
1.007940
1.007940
15.999400
1.007940
1.007940
15.999400
1.007940
1.007940
15.999400
1.007940
1.007940
15.999400
1.007940
1.007940
15.999400
1.007940
1.007940
15.999400
1.007940
1.007940
15.999400
1.007940
1.007940
15.999400
1.007940
1.007940
15.999400
1.007940
1.007940
15.999400
1.007940
1.007940
15.999400
1.007940
1.007940
15.999400
1.007940
1.007940
15.999400
1.007940
1.007940
15.999400
1.007940
1.007940
15.999400
1.007940
1.007940
15.999400
1.007940
1.007940
15.999400
1.007940
1.007940
15.999400
1.007940
1.007940
15.999400
1.007940
1.007940
15.999400
1.007940
1.007940
15.999400
1.007940
1.007940
15.999400
1.007940
1.007940
15.999400
1.007940
1.007940
15.999400
1.007940
1.007940
15.999400
1.007940
1.007940
15.999400
1.007940
1.007940
15.999400
1.007940
1.007940
15.999400
1.007940
1.007940
15.999400
1.007940
1.007940
15.999400
1.007940
1.007940
15.999400
1.007940
1.007940
15.999400
1.007940
1.007940
15.999400
1.007940
1.007940
15.999400
1.007940
1.007940
15.999400
1.007940
1.007940
15.999400
1.007940
1.007940
15.999400
1.007940
1.007940
15.999400
1.007940
1.007940
15.999400
1.007940
1.007940
</mass>
<bond num="432">
bond 0 2
bond 0 1
bond 3 5
bond 3 4
bond 6 8
bond 6 7
bond 9 10
bond 9 11
bond 12 14
bond 12 13
bond 15 16
bond 15 17
bond 18 19
bond 18 20
bond 21 22
bond 21 23
bond 24 26
bond 24 25
bond 27 29
bond 27 28
bond 30 32
bond 30 31
bond 33 35
bond 33 34
bond 36 38
bond 36 37
bond 39 40
bond 39 41
bond 42 44
bond 42 43
bond 45 46
bond 45 47
bond 48 50
bond 48 49
bond 51 53
bond 51 52
bond 54 55
bond 54 56
bond 57 58
bond 57 59
bond 60 62
bond 60 61
bond 63 64
bond 63 65
bond 66 67
bond 66 68
bond 69 70
bond 69 71
bond 72 74
bond 72 73
bond 75 76
bond 75 77
bond 78 80
bond 78 79
bond 81 82
bond 81 83
bond 84 86
bond 84 85
bond 87 89
bond 87 88
bond 90 91
bond 90 92
bond 93 94
bond 93 95
bond 96 98
bond 96 97
bond 99 100
bond 99 101
bond 102 103
bond 102 104
bond 105 106
bond 105 107
bond 108 110
bond 108 109
bond 111 112
bond 111 113
bond 114 115
bond 114 116
bond 117 118
bond 117 119
bond 120 122
bond 120 121
bond 123 125
bond 123 124
bond 126 128
bond 126 127
bond 129 131
bond 129 130
bond 132 134
bond 132 133
bond 135 137
bond 135 136
bond 138 139
bond 138 140
bond 141 143
bond 141 142
bond 144 145
bond 144 146
bond 147 149
bond 147 148
bond 150 152
bond 150 151
bond 153 155
bond 153 154
bond 156 157
bond 156 158
bond 159 161
bond 159 160
bond 162 163
bond 162 164
bond 165 167
bond 165 166
bond 168 170
bond 168 169
bond 171 173
bond 171 172
bond 174 175
bond 174 176
bond 177 179
bond 177 178
bond 180 181
bond 180 182
bond 183 185
bond 183 184
bond 186 188
bond 186 187
bond 189 190
bond 189 191
bond 192 194
bond 192 193
bond 195 197
bond 195 196
bond 198 199
bond 198 200
bond 201 203
bond 201 202
bond 204 206
bond 204 205
bond 207 208
bond 207 209
bond 210 211
bond 210 212
bond 213 215
bond 213 214
bond 216 218
bond 216 217
bond 219 220
bond 219 221
bond 222 224
bond 222 223
bond 225 227
bond 225 226
bond 228 229
bond 228 230
bond 231 232
bond 231 233
bond 234 236
bond 234 235
bond 237 238
bond 237 239
bond 240 242
bond 240 241
bond 243 244
bond 243 245
bond 246 247
bond 246 248
bond 249 250
bond 249 251
bond 252 253
bond 252 254
bond 255 256
bond 255 257
bond 258 259
bond 258 260
bond 261 263
bond 261 262
bond 264 265
bond 264 266
bond 267 269
bond 267 268
bond 270 272
bond 270 271
bond 273 274
bond 273 275
bond 276 278
bond 276 277
bond 279 280
bond 279 281
bond 282 283
bond 282 284
bond 285 287
bond 285 286
bond 288 289
bond 288 290
bond 291 293
bond 291 292
bond 294 296
bond 294 295
bond 297 298
bond 297 299
bond 300 302
bond 300 301
bond 303 305
bond 303 304
bond 306 308
bond 306 307
bond 309 311
bond 309 310
bond 312 313
bond 312 314
bond 315 317
bond 315 316
bond 318 319
bond 318 320
bond 321 323
bond 321 322
bond 324 326
bond 324 325
bond 327 329
bond 327 328
bond 330 331
bond 330 332
bond 333 334
bond 333 335
bond 336 338
bond 336 337
bond 339 341
bond 339 340
bond 342 343
bond 342 344
bond 345 346
bond 345 347
bond 348 349
bond 348 350
bond 351 352
bond 351 353
bond 354 356
bond 354 355
bond 357 359
bond 357 358
bond 360 361
bond 360 362
bond 363 364
bond 363 365
bond 366 367
bond 366 368
bond 369 371
bond 369 370
bond 372 374
bond 372 373
bond 375 376
bond 375 377
bond 378 379
bond 378 380
bond 381 383
bond 381 382
bond 384 385
bond 384 386
bond 387 389
bond 387 388
bond 390 391
bond 390 392
bond 393 394
bond 393 395
bond 396 398
bond 396 397
bond 399 401
bond 399 400
bond 402 404
bond 402 403
bond 405 407
bond 405 406
bond 408 409
bond 408 410
bond 411 413
bond 411 412
bond 414 416
bond 414 415
bond 417 419
bond 417 418
bond 420 421
bond 420 422
bond 423 424
bond 423 425
bond 426 428
bond 426 427
bond 429 430
bond 429 431
bond 432 434
bond 432 433
bond 435 437
bond 435 436
bond 438 440
bond 438 439
bond 441 442
bond 441 443
bond 444 445
bond 444 446
bond 447 449
bond 447 448
bond 450 451
bond 450 452
bond 453 455
bond 453 454
bond 456 457
bond 456 458
bond 459 460
bond 459 461
bond 462 464
bond 462 463
bond 465 467
bond 465 466
bond 468 469
bond 468 470
bond 471 472
bond 471 473
bond 474 475
bond 474 476
bond 477 478
bond 477 479
bond 480 482
bond 480 481
bond 483 485
bond 483 484
bond 486 487
bond 486 488
bond 489 490
bond 489 491
bond 492 493
bond 492 494
bond 495 496
bond 495 497
bond 498 500
bond 498 499
bond 501 502
bond 501 503
bond 504 505
bond 504 506
bond 507 509
bond 507 508
bond 510 511
bond 510 512
bond 513 515
bond 513 514
bond 516 518
bond 516 517
bond 519 520
bond 519 521
bond 522 523
bond 522 524
bond 525 527
bond 525 526
bond 528 529
bond 528 530
bond 531 533
bond 531 532
bond 534 535
bond 534 536
bond 537 539
bond 537 538
bond 540 541
bond 540 542
bond 543 544
bond 543 545
bond 546 547
bond 546 548
bond 549 550
bond 549 551
bond 552 553
bond 552 554
bond 555 557
bond 555 556
bond 558 560
bond 558 559
bond 561 562
bond 561 563
bond 564 566
bond 564 565
bond 567 568
bond 567 569
bond 570 572
bond 570 571
bond 573 574
bond 573 575
bond 576 578
bond 576 577
bond 579 581
bond 579 580
bond 582 583
bond 582 584
bond 585 587
bond 585 586
bond 588 589
bond 588 590
bond 591 592
bond 591 593
bond 594 595
bond 594 596
bond 597 598
bond 597 599
bond 600 602
bond 600 601
bond 603 605
bond 603 604
bond 606 608
bond 606 607
bond 609 610
bond 609 611
bond 612 613
bond 612 614
bond 615 617
bond 615 616
bond 618 619
bond 618 620
bond 621 622
bond 621 623
bond 624 625
bond 624 626
bond 627 628
bond 627 629
bond 630 632
bond 630 631
bond 633 634
bond 633 635
bond 636 637
bond 636 638
bond 639 641
bond 639 640
bond 642 643
bond 642 644
bond 645 646
bond 645 647
</bond>
<box lx="0.000000" ly="0.000000" lz="0.000000" />
<position num="648">
2.300000 6.280000 1.130000
1.370000 6.260000 1.500000
2.310000 5.890000 0.210000
2.250000 2.750000 -8.660000
2.600000 2.580000 -7.740000
1.370000 2.300000 -8.780000
0.190000 3.680000 6.470000
-0.630000 4.110000 6.860000
-0.090000 2.950000 5.840000
5.690000 -5.870000 -6.970000
4.760000 -5.940000 -7.340000
5.800000 -4.980000 -6.530000
-3.070000 -3.510000 7.030000
-3.640000 -3.670000 7.840000
-3.660000 -3.410000 6.230000
-1.190000 6.180000 8.560000
-0.860000 7.120000 8.560000
-0.680000 5.640000 9.220000
-7.270000 7.030000 7.170000
-6.700000 7.810000 6.920000
-7.870000 7.290000 7.930000
-1.070000 6.070000 2.310000
-1.190000 5.940000 1.320000
-1.370000 5.260000 2.800000
7.680000 -7.180000 -8.390000
6.900000 -7.010000 -7.790000
8.020000 -6.310000 -8.750000
8.500000 7.980000 -0.390000
8.460000 8.740000 0.260000
8.720000 8.340000 -1.300000
6.850000 -8.500000 6.650000
7.540000 -8.660000 7.350000
6.120000 -7.930000 7.030000
6.860000 -7.010000 -0.590000
7.460000 -6.220000 -0.450000
6.000000 -6.700000 -1.000000
3.350000 -4.270000 -8.010000
2.570000 -4.580000 -8.540000
3.930000 -3.690000 -8.580000
-4.020000 -3.570000 -5.230000
-3.780000 -2.630000 -4.970000
-4.180000 -4.110000 -4.410000
4.380000 3.920000 -3.630000
5.200000 3.360000 -3.540000
3.570000 3.340000 -3.590000
-2.590000 4.470000 7.370000
-3.330000 4.930000 6.870000
-2.080000 5.150000 7.900000
2.310000 -1.490000 4.830000
2.650000 -0.720000 5.370000
2.750000 -1.490000 3.930000
-7.350000 -5.210000 -1.720000
-6.880000 -5.210000 -0.840000
-7.830000 -6.080000 -1.830000
2.300000 -4.280000 5.380000
2.040000 -3.320000 5.380000
1.590000 -4.820000 5.830000
2.400000 -7.710000 8.860000
2.540000 -8.550000 9.380000
1.850000 -7.070000 9.410000
6.200000 -0.760000 -4.230000
5.280000 -0.930000 -3.880000
6.480000 0.160000 -3.970000
6.060000 -8.980000 1.230000
6.130000 -8.140000 0.690000
6.520000 -8.850000 2.110000
-2.680000 1.140000 -3.820000
-2.860000 1.810000 -4.540000
-2.710000 1.600000 -2.930000
1.220000 6.430000 5.630000
0.770000 5.550000 5.800000
1.210000 6.970000 6.470000
-0.200000 -0.950000 3.590000
0.340000 -1.240000 4.390000
0.100000 -0.050000 3.300000
0.270000 -2.660000 1.170000
0.080000 -3.620000 1.380000
-0.060000 -2.080000 1.920000
-1.730000 9.220000 6.120000
-0.780000 8.930000 6.200000
-1.810000 9.870000 5.370000
-2.210000 -7.540000 4.320000
-1.350000 -7.520000 3.800000
-2.070000 -7.070000 5.200000
1.130000 7.370000 -2.650000
2.010000 7.240000 -2.200000
1.000000 8.340000 -2.870000
6.130000 -4.970000 7.260000
5.640000 -5.840000 7.350000
5.900000 -4.540000 6.390000
-5.690000 -6.340000 -4.390000
-5.320000 -7.070000 -4.970000
-5.170000 -6.290000 -3.540000
8.090000 0.040000 5.020000
8.490000 0.950000 4.930000
7.090000 0.120000 5.080000
1.970000 -8.860000 -5.980000
2.860000 -9.310000 -6.120000
1.240000 -9.510000 -6.170000
-3.370000 -8.630000 1.900000
-4.000000 -9.390000 2.030000
-2.890000 -8.450000 2.760000
-6.750000 -0.700000 -2.460000
-6.510000 -0.100000 -3.220000
-6.680000 -1.650000 -2.760000
3.170000 2.510000 -0.610000
3.880000 3.220000 -0.550000
2.290000 2.900000 -0.330000
-3.960000 -4.450000 -9.090000
-4.550000 -4.390000 -8.290000
-4.110000 -5.330000 -9.550000
-1.950000 -1.480000 5.720000
-2.360000 -1.710000 4.840000
-2.130000 -2.220000 6.370000
5.980000 7.290000 2.700000
6.220000 7.980000 2.020000
5.200000 7.620000 3.240000
-5.810000 3.450000 -9.180000
-6.670000 2.950000 -9.310000
-5.190000 2.910000 -8.620000
-2.860000 -2.000000 3.070000
-1.970000 -1.540000 3.100000
-3.070000 -2.240000 2.120000
8.070000 6.050000 -3.970000
7.600000 6.020000 -3.080000
7.560000 5.500000 -4.630000
-4.680000 4.690000 -1.880000
-4.880000 5.120000 -1.000000
-3.900000 4.070000 -1.790000
-8.890000 8.900000 -2.900000
-8.430000 8.060000 -3.190000
-9.450000 9.240000 -3.650000
-8.710000 4.100000 -6.200000
-9.480000 4.440000 -5.660000
-9.050000 3.590000 -6.990000
-8.210000 7.010000 4.290000
-7.950000 6.970000 5.250000
-9.060000 6.500000 4.150000
0.760000 8.110000 7.890000
1.750000 7.990000 7.980000
0.520000 9.060000 8.100000
1.300000 -0.410000 -2.910000
1.200000 -0.560000 -1.920000
0.440000 -0.050000 -3.270000
8.650000 3.480000 1.950000
9.240000 4.110000 1.460000
8.840000 2.540000 1.660000
-1.430000 5.850000 -0.310000
-1.690000 6.740000 -0.670000
-1.450000 5.170000 -1.040000
-5.000000 -7.180000 5.450000
-4.170000 -7.470000 4.970000
-5.490000 -6.510000 4.890000
5.500000 1.960000 8.850000
5.450000 1.910000 9.850000
5.520000 2.920000 8.560000
-8.540000 -4.060000 4.770000
-9.000000 -3.340000 4.250000
-8.580000 -3.860000 5.750000
3.510000 -0.610000 8.530000
4.010000 -1.470000 8.590000
4.160000 0.160000 8.500000
-0.670000 -7.960000 8.730000
-1.290000 -8.110000 7.970000
-1.190000 -7.850000 9.580000
-6.350000 -3.120000 -3.560000
-6.290000 -3.890000 -2.920000
-6.870000 -3.380000 -4.360000
3.210000 -9.190000 2.420000
4.030000 -8.800000 2.000000
2.940000 -10.010000 1.930000
-4.040000 7.350000 7.280000
-4.090000 6.700000 8.030000
-3.240000 7.940000 7.410000
4.610000 -5.960000 -1.350000
4.110000 -5.950000 -2.210000
3.980000 -6.140000 -0.590000
-7.510000 -0.860000 2.370000
-8.110000 -1.480000 2.870000
-7.200000 -1.300000 1.520000
2.020000 2.850000 -3.640000
1.220000 3.450000 -3.770000
1.920000 2.360000 -2.780000
-2.300000 -4.850000 0.810000
-2.620000 -3.910000 0.710000
-3.060000 -5.480000 0.690000
4.640000 -1.190000 3.230000
4.970000 -0.800000 4.090000
5.400000 -1.260000 2.580000
-4.620000 1.070000 4.260000
-4.860000 0.700000 3.360000
-3.630000 1.230000 4.300000
2.490000 -0.770000 -6.210000
3.060000 -1.420000 -5.710000
2.330000 -1.100000 -7.140000
-9.220000 -1.640000 9.040000
-8.420000 -2.210000 9.250000
-9.710000 -2.040000 8.270000
3.820000 7.000000 4.800000
4.270000 6.100000 4.770000
2.880000 6.890000 5.130000
-3.150000 2.220000 -1.330000
-3.200000 2.590000 -0.410000
-3.870000 1.530000 -1.450000
6.140000 1.220000 1.170000
7.120000 1.000000 1.240000
5.830000 1.050000 0.240000
7.810000 2.640000 -1.130000
8.480000 2.030000 -0.700000
7.080000 2.830000 -0.480000
8.880000 -3.480000 -6.670000
8.650000 -3.730000 -7.610000
9.490000 -4.170000 -6.280000
-5.110000 5.900000 -4.290000
-4.830000 5.470000 -3.440000
-4.860000 6.860000 -4.280000
8.030000 -4.600000 9.240000
8.930000 -4.460000 8.820000
7.320000 -4.580000 8.530000
9.220000 5.030000 8.990000
8.970000 4.940000 8.030000
9.700000 4.210000 9.300000
5.390000 0.640000 5.120000
4.580000 0.650000 5.700000
5.420000 1.470000 4.570000
-4.280000 -6.740000 0.410000
-3.960000 -7.500000 0.980000
-5.200000 -6.470000 0.710000
2.970000 0.350000 1.710000
3.460000 1.190000 1.500000
3.590000 -0.300000 2.160000
-9.270000 2.360000 4.800000
-9.750000 2.770000 4.020000
-8.280000 2.340000 4.610000
-7.860000 6.830000 -3.980000
-8.660000 6.220000 -3.950000
-7.050000 6.300000 -4.220000
-6.350000 -2.920000 7.930000
-6.140000 -2.180000 7.280000
-5.670000 -2.920000 8.660000
4.590000 -7.100000 7.410000
3.880000 -7.370000 8.060000
4.330000 -7.380000 6.480000
-5.910000 -0.650000 5.910000
-5.470000 -0.010000 5.270000
-6.410000 -0.130000 6.610000
-8.300000 5.490000 0.160000
-8.710000 6.310000 -0.230000
-7.660000 5.750000 0.890000
0.780000 5.560000 -4.760000
1.700000 5.550000 -5.170000
0.720000 6.300000 -4.090000
5.610000 2.220000 -7.150000
5.990000 1.380000 -6.780000
4.730000 2.410000 -6.710000
8.660000 4.540000 6.420000
8.340000 5.260000 5.800000
8.900000 3.730000 5.890000
-8.450000 0.390000 7.530000
-9.170000 0.440000 6.840000
-8.690000 -0.300000 8.220000
-4.330000 -6.890000 8.670000
-4.880000 -7.730000 8.600000
-4.070000 -6.600000 7.750000
-3.960000 5.900000 -8.700000
-4.260000 4.950000 -8.630000
-3.230000 6.060000 -8.040000
-0.050000 8.330000 3.770000
0.370000 7.690000 4.410000
-0.430000 7.820000 2.990000
4.880000 -4.770000 1.740000
4.010000 -4.920000 2.210000
4.710000 -4.510000 0.790000
-1.980000 -5.820000 6.570000
-0.990000 -5.740000 6.710000
-2.430000 -4.980000 6.880000
-4.720000 5.750000 0.780000
-5.260000 5.540000 1.590000
-3.810000 5.340000 0.870000
5.270000 2.560000 3.280000
5.540000 1.970000 2.530000
5.270000 3.510000 2.970000
-1.080000 -6.390000 -2.740000
-0.170000 -6.780000 -2.870000
-1.000000 -5.430000 -2.500000
-7.980000 -5.150000 -5.220000
-8.780000 -5.380000 -4.670000
-7.150000 -5.410000 -4.730000
-2.700000 -2.330000 -2.370000
-2.430000 -1.990000 -3.270000
-1.910000 -2.710000 -1.910000
-7.510000 -6.670000 -7.620000
-7.910000 -6.230000 -6.810000
-7.920000 -6.300000 -8.450000
-2.240000 -7.630000 -7.830000
-2.190000 -6.820000 -7.240000
-3.100000 -7.610000 -8.340000
9.150000 0.890000 -4.600000
9.400000 0.690000 -5.550000
9.870000 1.450000 -4.180000
-8.820000 -7.460000 -1.430000
-9.810000 -7.400000 -1.330000
-8.590000 -8.260000 -1.990000
7.050000 -8.120000 3.680000
6.910000 -8.050000 4.670000
7.890000 -8.630000 3.500000
4.100000 8.130000 -6.110000
4.960000 8.250000 -5.610000
3.680000 7.260000 -5.840000
-5.880000 3.860000 -6.000000
-5.670000 4.600000 -5.360000
-6.770000 4.030000 -6.430000
0.640000 -2.980000 -5.310000
0.180000 -2.160000 -5.650000
1.620000 -2.790000 -5.220000
3.670000 -7.620000 5.010000
3.600000 -6.790000 4.450000
3.710000 -8.420000 4.410000
5.660000 5.370000 8.650000
5.780000 6.030000 7.910000
6.120000 5.710000 9.480000
-6.100000 -5.140000 3.880000
-5.600000 -4.370000 4.280000
-7.050000 -5.120000 4.200000
-5.900000 -4.170000 -7.200000
-5.430000 -4.040000 -6.330000
-6.560000 -4.910000 -7.110000
-2.800000 6.390000 4.720000
-3.110000 7.000000 5.450000
-2.300000 6.910000 4.030000
3.540000 -3.520000 -5.330000
3.330000 -3.960000 -6.200000
4.510000 -3.260000 -5.300000
4.020000 7.510000 -2.640000
4.700000 8.060000 -3.110000
4.420000 6.630000 -2.370000
-2.750000 7.790000 -1.920000
-3.670000 8.170000 -1.970000
-2.150000 8.260000 -2.570000
-8.490000 1.050000 -0.920000
-8.430000 1.900000 -1.440000
-8.170000 0.290000 -1.490000
5.040000 0.500000 -1.220000
4.620000 -0.070000 -1.920000
4.380000 1.190000 -0.900000
5.730000 8.700000 -8.330000
6.170000 9.590000 -8.420000
5.100000 8.700000 -7.560000
-5.020000 8.620000 -8.170000
-5.770000 8.620000 -8.830000
-4.650000 7.700000 -8.080000
-6.530000 5.250000 2.750000
-6.400000 4.410000 3.290000
-6.820000 5.990000 3.350000
3.070000 2.130000 -6.310000
2.840000 2.500000 -5.410000
2.770000 1.180000 -6.370000
0.370000 -5.520000 -5.800000
0.900000 -6.010000 -5.120000
0.590000 -4.540000 -5.750000
7.320000 6.340000 -7.980000
7.910000 6.080000 -8.740000
7.040000 7.300000 -8.090000
-1.340000 -9.270000 -0.080000
-1.800000 -9.340000 -0.970000
-1.960000 -8.830000 0.580000
3.070000 0.630000 6.180000
2.960000 1.570000 6.510000
3.020000 0.000000 6.950000
-2.400000 3.670000 3.740000
-2.380000 2.910000 4.380000
-2.880000 4.440000 4.140000
-8.390000 7.660000 -8.960000
-8.240000 7.870000 -8.000000
-8.690000 6.710000 -9.050000
-8.820000 -2.890000 -1.620000
-9.020000 -2.450000 -2.500000
-8.430000 -3.800000 -1.780000
-0.030000 -3.440000 -2.570000
0.110000 -3.170000 -3.520000
0.800000 -3.220000 -2.040000
3.500000 8.980000 -0.580000
4.260000 9.420000 -0.100000
3.850000 8.510000 -1.400000
-3.220000 2.740000 1.250000
-3.830000 1.990000 1.480000
-3.000000 3.260000 2.080000
-5.590000 8.380000 0.420000
-5.250000 7.450000 0.570000
-5.410000 8.650000 -0.530000
-7.940000 -5.290000 8.490000
-7.870000 -6.130000 7.940000
-7.320000 -4.600000 8.130000
3.190000 8.100000 -9.130000
4.120000 8.460000 -9.080000
3.130000 7.250000 -8.610000
3.390000 5.090000 -8.560000
2.870000 4.260000 -8.730000
4.160000 5.140000 -9.200000
5.110000 4.150000 -0.540000
4.930000 4.600000 0.340000
5.530000 4.800000 -1.170000
-7.240000 3.800000 -1.840000
-7.690000 4.430000 -1.200000
-6.310000 4.110000 -2.010000
-7.020000 2.070000 -3.850000
-7.020000 2.710000 -3.080000
-6.740000 2.550000 -4.680000
0.080000 -5.360000 2.000000
-0.850000 -5.150000 1.690000
0.180000 -6.350000 2.130000
0.880000 -0.610000 9.270000
0.460000 -1.470000 9.000000
1.820000 -0.580000 8.930000
5.040000 -2.940000 9.100000
5.700000 -2.200000 9.190000
5.480000 -3.730000 8.680000
-8.600000 7.960000 -6.240000
-8.190000 7.640000 -5.380000
-9.560000 7.690000 -6.270000
0.400000 5.440000 -7.480000
1.250000 5.110000 -7.890000
0.530000 5.590000 -6.500000
1.890000 5.200000 -1.400000
2.480000 4.800000 -2.100000
1.310000 5.910000 -1.810000
-4.930000 -9.120000 -2.020000
-4.540000 -8.230000 -1.820000
-4.830000 -9.320000 -2.990000
8.150000 5.720000 3.250000
8.220000 4.830000 2.790000
7.210000 6.060000 3.170000
-2.050000 6.040000 -6.560000
-2.430000 5.350000 -5.940000
-1.230000 5.680000 -7.000000
2.520000 -2.980000 -1.180000
2.220000 -2.410000 -0.420000
2.450000 -3.950000 -0.920000
6.710000 4.640000 -5.930000
6.370000 3.750000 -6.230000
6.970000 5.180000 -6.730000
9.300000 -1.840000 -3.970000
9.060000 -2.020000 -4.920000
9.600000 -0.900000 -3.870000
4.730000 5.000000 1.910000
5.340000 5.800000 1.950000
3.780000 5.310000 1.980000
1.590000 -7.250000 -3.960000
1.810000 -7.860000 -3.200000
1.690000 -7.740000 -4.820000
-5.150000 -8.030000 -6.280000
-4.910000 -8.660000 -7.020000
-6.050000 -7.630000 -6.460000
-5.600000 8.550000 3.090000
-6.460000 8.240000 3.510000
-5.640000 8.410000 2.100000
-1.030000 -1.150000 -7.080000
-0.420000 -0.850000 -7.810000
-1.410000 -2.040000 -7.300000
-6.100000 -1.310000 -7.340000
-5.260000 -1.260000 -7.880000
-6.330000 -2.270000 -7.160000
0.830000 -6.040000 -8.400000
0.780000 -6.050000 -7.400000
0.000000 -6.450000 -8.780000
6.880000 -2.000000 -1.460000
6.320000 -1.190000 -1.370000
7.400000 -1.960000 -2.320000
9.030000 0.860000 1.330000
9.540000 0.870000 0.470000
9.590000 0.440000 2.040000
-1.360000 1.350000 5.230000
-0.630000 1.180000 4.560000
-1.670000 0.480000 5.610000
-4.740000 -2.890000 4.770000
-4.070000 -2.770000 4.030000
-5.140000 -2.000000 5.000000
1.300000 -0.680000 -0.110000
0.890000 -1.420000 0.420000
1.940000 -0.170000 0.470000
-5.820000 9.270000 6.720000
-5.220000 8.460000 6.740000
-5.420000 9.960000 6.120000
8.300000 -5.890000 -4.400000
8.250000 -5.560000 -3.450000
7.440000 -5.700000 -4.860000
6.720000 -2.460000 1.540000
6.810000 -2.360000 0.550000
6.320000 -3.350000 1.750000
-2.120000 -1.420000 -4.680000
-1.590000 -1.320000 -5.520000
-2.390000 -0.520000 -4.340000
-0.210000 1.750000 -8.990000
0.180000 0.900000 -9.350000
-1.190000 1.770000 -9.180000
2.630000 3.260000 7.200000
1.840000 3.770000 6.860000
2.540000 3.110000 8.180000
-6.680000 -2.500000 0.310000
-6.620000 -3.430000 0.680000
-7.270000 -2.500000 -0.490000
8.220000 -8.600000 -4.900000
8.620000 -8.610000 -5.820000
8.320000 -7.680000 -4.500000
9.160000 9.100000 2.910000
9.790000 9.480000 2.230000
9.560000 8.270000 3.300000
-3.580000 -2.550000 0.440000
-4.500000 -2.180000 0.510000
-3.200000 -2.350000 -0.460000
3.720000 -5.740000 -3.720000
3.590000 -4.810000 -4.060000
2.880000 -6.260000 -3.850000
-2.480000 -5.700000 -5.730000
-1.880000 -5.670000 -4.930000
-3.230000 -5.060000 -5.600000
-8.230000 -7.640000 6.960000
-8.930000 -8.110000 7.500000
-7.640000 -8.320000 6.530000
-8.480000 2.360000 -8.910000
-8.560000 2.000000 -9.840000
-8.500000 1.600000 -8.260000
5.900000 -3.750000 4.910000
6.320000 -4.330000 4.210000
5.460000 -2.960000 4.470000
-1.530000 3.850000 -4.810000
-0.800000 4.540000 -4.770000
-1.250000 3.100000 -5.400000
2.550000 -5.140000 2.900000
1.590000 -5.130000 2.630000
2.670000 -4.610000 3.740000
1.050000 -8.490000 -1.360000
0.280000 -8.820000 -0.820000
1.900000 -8.790000 -0.940000
6.720000 2.030000 -3.730000
7.620000 1.870000 -4.130000
6.800000 2.080000 -2.740000
0.750000 3.450000 0.330000
-0.170000 3.170000 0.040000
1.060000 4.220000 -0.230000
-4.220000 8.560000 -4.640000
-4.790000 9.080000 -5.270000
-3.260000 8.680000 -4.880000
0.720000 1.660000 3.180000
0.550000 2.490000 2.640000
1.620000 1.290000 2.960000
-6.790000 -5.270000 1.190000
-7.780000 -5.380000 1.210000
-6.450000 -5.120000 2.120000
6.130000 8.420000 -4.310000
6.690000 9.230000 -4.480000
6.720000 7.620000 -4.280000
-3.690000 -0.950000 -9.030000
-3.360000 -0.310000 -9.720000
-3.030000 -1.010000 -8.280000
7.160000 5.650000 -1.540000
7.350000 6.300000 -0.800000
7.760000 4.850000 -1.450000
-4.120000 -6.420000 -2.290000
-4.210000 -6.520000 -1.300000
-3.160000 -6.490000 -2.550000
3.900000 -1.210000 -3.020000
2.990000 -0.800000 -3.040000
3.830000 -2.150000 -2.700000
-1.880000 8.830000 -6.080000
-2.150000 7.940000 -6.450000
-1.870000 9.510000 -6.810000
-6.370000 3.250000 4.490000
-5.720000 2.510000 4.380000
-6.170000 3.750000 5.330000
5.940000 7.450000 6.520000
6.440000 8.300000 6.330000
5.060000 7.470000 6.040000
-0.850000 3.420000 -2.200000
-1.020000 3.730000 -3.140000
-1.690000 3.050000 -1.820000
-1.320000 -9.280000 -3.450000
-0.940000 -8.370000 -3.300000
-1.400000 -9.450000 -4.440000
8.590000 -4.880000 0.160000
8.130000 -4.730000 1.040000
9.030000 -4.030000 -0.140000
6.610000 -0.720000 -9.090000
6.150000 0.160000 -9.220000
7.600000 -0.600000 -9.160000
-4.540000 -0.110000 -1.420000
-5.500000 -0.220000 -1.690000
-3.980000 -0.780000 -1.900000
8.590000 -9.060000 8.610000
9.130000 -9.750000 9.090000
8.270000 -8.370000 9.270000
-7.790000 -8.780000 0.870000
-8.020000 -8.250000 0.050000
-6.980000 -9.340000 0.680000
-0.010000 -2.930000 8.510000
-0.720000 -3.050000 7.810000
0.000000 -3.720000 9.110000
2.210000 -5.480000 -0.180000
1.560000 -6.210000 -0.390000
2.250000 -5.340000 0.800000
0.790000 -6.220000 6.530000
0.780000 -6.690000 7.410000
1.610000 -6.500000 6.020000
6.720000 -4.710000 -2.380000
5.940000 -5.210000 -2.000000
6.690000 -3.760000 -2.070000
-0.380000 1.920000 -6.350000
-0.420000 1.020000 -5.910000
-0.350000 1.810000 -7.340000
4.280000 4.240000 5.200000
4.580000 3.520000 4.580000
3.890000 3.840000 6.030000
-1.570000 -3.750000 -7.580000
-2.500000 -4.000000 -7.850000
-1.310000 -4.250000 -6.760000
3.170000 5.470000 -5.820000
3.550000 4.880000 -5.100000
3.570000 5.210000 -6.700000
8.120000 -2.760000 6.870000
8.440000 -2.660000 5.930000
7.330000 -3.380000 6.890000
-4.380000 2.140000 -7.500000
-3.860000 1.490000 -6.950000
-4.870000 2.770000 -6.890000
-8.610000 0.340000 -7.080000
-9.240000 -0.380000 -7.390000
-7.680000 -0.020000 -7.080000
7.700000 -5.320000 3.010000
7.240000 -6.190000 3.180000
8.610000 -5.350000 3.420000
6.180000 -2.950000 -5.780000
6.130000 -2.130000 -5.210000
7.070000 -2.980000 -6.230000
-5.100000 0.520000 1.680000
-4.750000 0.110000 0.840000
-6.000000 0.140000 1.880000
-5.620000 4.530000 6.910000
-6.210000 5.330000 6.950000
-5.470000 4.180000 7.840000
-2.690000 2.210000 8.820000
-3.530000 2.200000 9.360000
-2.670000 3.040000 8.260000
0.390000 -7.850000 3.000000
1.380000 -7.960000 2.910000
-0.010000 -8.710000 3.320000
8.750000 -2.160000 3.370000
7.980000 -2.510000 2.830000
8.430000 -1.450000 3.990000
</position>
</configuration>
</hoomd_xml>
